<VTKFile type="PolyData" version="0.1" byte_order="LittleEndian">
  <PolyData>
    <Piece NumberOfPoints="82" NumberOfVerts="0" NumberOfLines="0" NumberOfStrips="0" NumberOfPolys="160">
      <PointData Normals="Normals">
        <DataArray type="Float32" Name="Normals" NumberOfComponents="3" format="ascii" RangeMin="0.99999996186" RangeMax="1.0000000307">
          0.024866614491 -0.95949310064 0.28063264489 -0.1792486012 -0.96651256084 0.18363925815
          -0.013228288852 -0.022898893803 0.99965023994 -0.046722769737 -0.51580804586 0.85542917252
          -0.069565884769 -0.86920648813 0.4895311296 0.49713483453 -0.83474087715 -0.2367797792
          0.60148829222 -0.70751190186 -0.37099692225 0.96358680725 0.0024662849028 -0.2673842907
          0.52969205379 -0.84047150612 -0.11416651309 0.88175481558 -0.010676350445 0.47158715129
          0.82597303391 -0.56370967627 0 0.75917714834 -0.50484097004 0.41083538532
          0.26316577196 -0.726136446 0.63519263268 -0.012374431826 -0.046974036843 0.99881947041
          -0.038605093956 -0.93081712723 0.36344066262 -0.0010163227562 -0.085925102234 0.99630105495
          -0.60090899467 -0.29868289828 0.74141544104 0.61686104536 -0.2996366322 0.72780513763
          0.36931920052 -0.85274904966 0.36935403943 -0.15224164724 -0.5377612114 -0.82923781872
          -0.10910333693 0.012953929603 -0.99394601583 0.30273479223 -0.70664554834 -0.63953399658
          0.69255793095 0.015358972363 -0.72119873762 0.45089182258 -0.7277020812 -0.51686197519
          -0.60765361786 -0.55615979433 -0.56695973873 0.96114432812 0.019571375102 -0.27535161376
          0.76026302576 -0.43750974536 -0.48019301891 0.98819762468 -0.0015042263549 0.15317706764
          0.45899957418 -0.12147501856 0.88009274006 0.059380970895 -0.22989735007 0.97140163183
          -0.60641956329 -0.075799442828 0.79152369499 -0.2732745707 -0.81294631958 0.51423662901
          -0.43139466643 -0.90086054802 0.048465147614 -0.70256686211 -0.70855587721 0.065942049026
          -0.70607215166 -0.70673507452 0.044582225382 -0.93988960981 0.0049181301147 -0.34144294262
          -0.20861047506 -0.97559028864 -0.068595051765 -0.33148425817 0.041670240462 -0.94254004955
          0.63546139002 0.0058857467957 -0.77211022377 0.98613739014 -0.040124803782 -0.16100631654
          0.99908959866 -0.027276108041 -0.032802615315 0.87812751532 -0.042553409934 0.4765304029
          -0.044540300965 -0.18896785378 0.98097264767 -0.85735857487 -0.16344843805 0.48807877302
          -0.99754828215 -0.032745953649 -0.061847299337 -0.82893204689 -0.55532425642 -0.066982500255
          -0.99210673571 -0.020587000996 -0.12369463593 -0.83205032349 -0.55470019579 0
          -0.70654469728 -0.70721918344 -0.02521192655 -0.90722841024 0.015388797037 -0.42035672069
          -0.83312356472 -0.55256253481 0.024079687893 -0.29019013047 0.029088206589 -0.95652681589
          0.42218601704 -0.068717084825 -0.90390092134 0.89326518774 -0.44697991014 0.047815151513
          0.93428635597 -0.3167616725 0.16361874342 0.90878748894 0.13755501807 0.39393395185
          0.12020263821 0.31129294634 0.94268131256 -0.82756972313 -0.06212040782 0.55791521072
          -0.98951101303 -0.13906349242 0.039105992764 -0.91203576326 -0.12213464826 -0.39150211215
          -0.51829826832 -0.025839319453 -0.85480946302 -0.077646531165 0.013154735789 -0.99689418077
          0.040616482496 0.077432535589 -0.99616992474 0.95863676071 -0.0037487756927 -0.28460755944
          0.88607358932 -0.20885948837 0.41382524371 0.64343523979 0.30395942926 0.70256656408
          0.30197042227 0.62244790792 0.72206121683 -0.43576687574 0.44039610028 0.78495764732
          -0.90256565809 0.23216547072 0.36259409785 -0.75619268417 0.12602214515 -0.64209890366
          0.065017774701 0.034748807549 -0.99727892876 0.2884349823 0.25729310513 -0.92228275537
          -0.1971347332 0.38594391942 -0.9012131691 0.42883229256 0.6837362051 -0.59043002129
          0.68661344051 0.72622793913 0.033985570073 0.6475340724 0.74220353365 0.17272378504
          0.60221421719 0.77088320255 0.20755025744 0.41836160421 0.82187753916 0.3866404593
          0.026116605848 0.92513602972 0.37873634696 -0.012659966946 0.8707318902 -0.49159508944
          0.43510600924 0.35472348332 -0.8275590539 0.51805561781 0.7391628027 -0.43041455746
        </DataArray>
      </PointData>
      <CellData>
      </CellData>
      <Points>
        <DataArray type="Float32" Name="Points" NumberOfComponents="3" format="ascii" RangeMin="0.063964334477" RangeMax="0.21721078074">
          -0.002810860984 -0.21442189813 0.033435400575 -0.0011046138825 -0.21442189813 0.0341768004
          -0.00400000019 -0.1573870033 0.032970000058 -0.00400000019 -0.21442189813 0.034226018935
          -0.0052505754866 -0.21442189813 0.033181481063 0.003886502469 -0.21442189813 0.026614882052
          0.0027839248069 -0.21442189813 0.024413995445 0.004474000074 -0.19769600034 0.027247000486
          0.0042108939961 -0.21442189813 0.027332449332 0.004474000074 -0.19769600034 0.032752998173
          0.0042108939961 -0.21442189813 0.031710203737 0.0042108939961 -0.21442189813 0.03266755119
          0.0016432586126 -0.21442189813 0.03434523195 0.00036400000681 -0.16074599326 0.036006998271
          -0.00081838294864 -0.21442189813 0.034379243851 -0.00400000019 -0.12379699945 0.035939998925
          -0.001033703913 -0.21442189813 0.034329861403 -0.0066334470175 -0.21442189813 0.033931486309
          -0.0065556420013 -0.21442189813 0.033754084259 -0.00400000019 -0.21442189813 0.020010000095
          -0.00400000019 -0.20542100072 0.020010000095 -0.0012824205915 -0.21442189813 0.021453633904
          0.0012369999895 -0.17636600137 0.022792000324 0.0014779848279 -0.21442189813 0.022460076958
          -0.0044475686736 -0.21442189813 0.020520975813 0.0034469999373 -0.14731000364 0.02758000046
          0.0018452678341 -0.21442189813 0.023155765608 0.0034469999373 -0.14731000364 0.032419998199
          0.0015549999662 -0.12194900215 0.037645000964 -0.00400000019 -0.096588000655 0.041069999337
          -0.0084429997951 -0.15604299307 0.036116000265 -0.006906980183 -0.21442189813 0.034000977874
          -0.0078627066687 -0.21442189813 0.031340114772 -0.0080961156636 -0.21442189813 0.024495262653
          -0.0079105682671 -0.21442189813 0.027801714838 -0.0081259999424 -0.21046000719 0.02432099916
          -0.0081175714731 -0.21442189813 0.024332555011 -0.00400000019 -0.15436400473 0.021630000323
          0.00044299999718 -0.12597900629 0.023884000257 0.0024200000335 -0.097594998777 0.027914000675
          0.0024200000335 -0.097594998777 0.032085999846 0.0035379999317 -0.091716997325 0.040376000106
          -0.00400000019 -0.085840001702 0.048900000751 -0.010745000094 -0.11707899719 0.039283998311
          -0.0078520001844 -0.14831799269 0.031252000481 -0.0078520001844 -0.21442189813 0.031252000481
          -0.0078520001844 -0.14831799269 0.028748000041 -0.0078520001844 -0.21442189813 0.03121185489
          -0.0078520001844 -0.21442189813 0.028748000041 -0.0076500000432 -0.15133999288 0.02497600019
          -0.0078486092389 -0.21442189813 0.028684675694 -0.00400000019 -0.12043700367 0.024329999462
          0.000125999999 -0.10145899653 0.02432099916 0.0039599998854 -0.082479998469 0.027412999421
          0.0039599998854 -0.082479998469 0.032586999238 0.0038560000248 -0.077776998281 0.04081299901
          -0.00400000019 -0.073074996471 0.048360001296 -0.011220999993 -0.094405002892 0.039939001203
          -0.0099060004577 -0.11573400348 0.031918998808 -0.0099060004577 -0.11573400348 0.028080999851
          -0.0074909999967 -0.11808600277 0.025195000693 -0.00400000019 -0.083823002875 0.026489999145
          0.00115799997 -0.081304997206 0.022901000455 0.0093520004302 -0.078786000609 0.025660999119
          0.0093520004302 -0.078786000609 0.03433899954 0.0031409999356 -0.072571001947 0.039829999208
          -0.00400000019 -0.066356003284 0.040259998292 -0.011935000308 -0.069043003023 0.040922001004
          -0.019920999184 -0.071731001139 0.035172998905 -0.019920999184 -0.071731001139 0.024826999754
          -0.0099520003423 -0.077776998281 0.021809000522 -0.00400000019 -0.070386998355 0.02594999969
          -0.00042900000699 -0.068708002567 0.025085000321 0.0037040000316 -0.067028000951 0.02749699913
          0.0037040000316 -0.067028000951 0.032503001392 -0.00019099999918 -0.064341001213 0.035241998732
          -0.00400000019 -0.061652999371 0.034860000014 -0.0070949997753 -0.059135001153 0.034260001034
          -0.0093930000439 -0.056614998728 0.031752001494 -0.0093930000439 -0.056614998728 0.02824800089
          -0.0068569998257 -0.063501000404 0.026068000123 -0.00400000019 -0.065684996545 0.029999999329
        </DataArray>
      </Points>
      <Verts>
        <DataArray type="Int64" Name="connectivity" format="ascii" RangeMin="1e+299" RangeMax="-1e+299">
        </DataArray>
        <DataArray type="Int64" Name="offsets" format="ascii" RangeMin="1e+299" RangeMax="-1e+299">
        </DataArray>
      </Verts>
      <Lines>
        <DataArray type="Int64" Name="connectivity" format="ascii" RangeMin="1e+299" RangeMax="-1e+299">
        </DataArray>
        <DataArray type="Int64" Name="offsets" format="ascii" RangeMin="1e+299" RangeMax="-1e+299">
        </DataArray>
      </Lines>
      <Strips>
        <DataArray type="Int64" Name="connectivity" format="ascii" RangeMin="1e+299" RangeMax="-1e+299">
        </DataArray>
        <DataArray type="Int64" Name="offsets" format="ascii" RangeMin="1e+299" RangeMax="-1e+299">
        </DataArray>
      </Strips>
      <Polys>
        <DataArray type="Int64" Name="connectivity" format="ascii" RangeMin="0" RangeMax="81">
          0 1 2 0 2 3
          3 2 4 5 6 7
          5 7 8 9 10 7
          10 8 7 10 9 11
          11 9 12 13 12 9
          12 13 14 15 16 13
          13 16 14 15 2 16
          2 1 16 15 17 2
          17 18 2 4 2 18
          19 20 21 22 21 20
          21 22 23 24 20 19
          25 26 22 26 23 22
          7 6 26 25 7 26
          7 25 27 7 27 9
          9 27 28 9 28 13
          13 28 29 13 29 15
          15 29 30 15 30 17
          31 17 30 31 30 32
          33 34 35 33 35 36
          20 24 35 24 36 35
          20 37 38 20 38 22
          35 37 20 22 38 39
          22 39 25 25 39 40
          25 40 27 27 40 41
          27 41 28 28 41 42
          28 42 29 29 42 43
          29 43 30 30 43 44
          44 45 30 45 32 30
          46 47 44 47 45 44
          47 46 48 46 49 48
          49 50 48 35 34 50
          50 49 35 35 49 37
          37 51 52 37 52 38
          49 51 37 38 52 53
          38 53 39 39 53 54
          39 54 40 40 54 55
          40 55 41 41 55 56
          41 56 42 42 56 57
          42 57 43 43 57 58
          43 58 44 44 58 59
          44 59 46 46 59 60
          46 60 49 49 60 51
          51 61 62 51 62 52
          60 61 51 52 62 63
          52 63 53 53 63 64
          53 64 54 54 64 65
          54 65 55 55 65 66
          55 66 56 56 66 67
          56 67 57 57 67 68
          57 68 58 58 68 69
          58 69 59 59 69 70
          59 70 60 60 70 61
          61 71 72 61 72 62
          70 71 61 62 72 73
          62 73 63 63 73 74
          63 74 64 64 74 75
          64 75 65 65 75 76
          65 76 66 66 76 77
          66 77 67 67 77 78
          67 78 68 68 78 79
          68 79 69 69 79 80
          69 80 70 70 80 71
          71 81 72 80 81 71
          72 81 73 73 81 74
          74 81 75 75 81 76
          76 81 77 77 81 78
          78 81 79 79 81 80
          3 4 0 8 10 12
          10 11 12 16 1 14
          17 31 18 12 14 8
          19 21 24 36 24 21
          21 23 36 31 32 18
          18 32 4 4 32 0
          23 26 36 26 6 36
          6 5 36 8 14 5
          5 14 36 32 45 0
          45 47 0 47 48 0
          0 48 1 14 1 36
          36 1 33 33 1 34
          34 1 50 48 50 1
        </DataArray>
        <DataArray type="Int64" Name="offsets" format="ascii" RangeMin="3" RangeMax="480">
          3 6 9 12 15 18
          21 24 27 30 33 36
          39 42 45 48 51 54
          57 60 63 66 69 72
          75 78 81 84 87 90
          93 96 99 102 105 108
          111 114 117 120 123 126
          129 132 135 138 141 144
          147 150 153 156 159 162
          165 168 171 174 177 180
          183 186 189 192 195 198
          201 204 207 210 213 216
          219 222 225 228 231 234
          237 240 243 246 249 252
          255 258 261 264 267 270
          273 276 279 282 285 288
          291 294 297 300 303 306
          309 312 315 318 321 324
          327 330 333 336 339 342
          345 348 351 354 357 360
          363 366 369 372 375 378
          381 384 387 390 393 396
          399 402 405 408 411 414
          417 420 423 426 429 432
          435 438 441 444 447 450
          453 456 459 462 465 468
          471 474 477 480
        </DataArray>
      </Polys>
    </Piece>
  </PolyData>
</VTKFile>
