<VTKFile type="PolyData" version="0.1" byte_order="LittleEndian" header_type="UInt64">
  <PolyData>
    <Piece NumberOfPoints="3978" NumberOfVerts="0" NumberOfLines="0" NumberOfStrips="0" NumberOfPolys="5674">
      <PointData Normals="Normals">
        <DataArray type="Float32" Name="Normals" NumberOfComponents="3" format="ascii" RangeMin="0.99999995965" RangeMax="1.0000000443">
          0 0 -1 0 0 -1
          0 0 -1 -0.36001965404 0.93294471502 0
          0 0 -1 0 0 -1
          -0.83981734514 0.54286909103 0 -0.13164280355 -0.070017129183 -0.98882138729
          0 0 -1 0.25682997704 0.96645659208 0
          0 0 -1 0 0 -1
          0.77592396736 0.63082641363 0 0 0 -1
          0 0 -1 0.99853265285 0.054153427482 0
          0 0 -1 0.83981734514 -0.54286909103 0
          0.043983969837 0.067946493626 -0.99671894312 0 0 -1
          0.36001965404 -0.93294471502 0 0 0 -1
          0.087231464684 0.097869925201 -0.9913688302 0 0 -1
          -0.25682997704 -0.96645659208 0 0 0 -1
          -0.77592396736 -0.63082641363 0 -0.15779142082 -0.18310666084 -0.97034728527
          -0.99853265285 -0.054153427482 0 0.13164372742 0.070017531514 -0.98882126808
          -0.043983917683 -0.067946337163 -0.99671894312 0 0 -1
          0 0 -1 -0.3600204885 0.932944417 0
          0 0 -1 0 0 -1
          -0.83981686831 0.54286986589 0 0 0 -1
          -0.087231472135 -0.097869843245 -0.9913688302 0 0 -1
          0.25682920218 0.9664568305 0 0 0 -1
          0.7759245038 0.63082581758 0 0.15779107809 0.18310618401 -0.97034740448
          0 0 -1 0.99853265285 0.054153420031 0
          0 0 -1 0 0 -1
          0.83981740475 -0.54286897182 0 0 0 -1
          0 0 -1 0.36001902819 -0.93294495344 0
          0 0 -1 -0.2568295002 -0.96645671129 0
          0 0 -1 0 0 -1
          -0.77592390776 -0.63082653284 0 -0.99853265285 -0.054153487086 0
          -0.27075320482 -0.27313923836 -0.92308592796 -0.63597732782 -0.0072605083697 -0.77167361975
          0.17085832357 0.098385043442 -0.9803712368 0.12649282813 0.048915352672 -0.99076074362
          -0.33906623721 -0.1882288754 -0.92173963785 0 0 -1
          -0.10913332552 -0.701148808 -0.7046135664 -0.66189438105 -0.69885843992 -0.27109545469
          0.32362174988 -0.62898308039 -0.70685875416 0.6359821558 0.0072613279335 -0.77166962624
          0.59355545044 -0.38278287649 -0.70793306828 0.27075329423 0.27313947678 -0.92308586836
          -0.17085839808 -0.098384931684 -0.9803712368 -0.12649291754 -0.048915211111 -0.99076074362
          0.33906701207 0.18822923303 -0.92173928022 0 0 -1
          0.10913407803 0.70115154982 -0.70461070538 0.66189575195 0.69886022806 -0.27108740807
          -0.32362496853 0.62898725271 -0.70685356855 -0.59355825186 0.38278645277 -0.70792877674
          0.32264956832 0.20930702984 -0.92308604717 0.14032846689 0.61627614498 -0.77492684126
          0.26326736808 0.28201594949 -0.92258185148 0.7074919939 -0.038900144398 -0.70564997196
          0.81617438793 0.50873720646 -0.27394500375 0.55076003075 -0.44783711433 -0.70434743166
          -0.14032883942 -0.61627882719 -0.77492463589 0.25524926186 -0.65944296122 -0.70709460974
          -0.32265001535 -0.20930719376 -0.92308580875 -0.26326841116 -0.28201723099 -0.92258119583
          -0.70749896765 0.038899783045 -0.70564299822 -0.81617319584 -0.50873607397 -0.27395060658
          -0.55075913668 0.44783642888 -0.70434856415 -0.25524798036 0.65943956375 -0.70709824562
          0 0 1 0 0 1
          0.095407895744 0.11457332969 0.98882269859 0 0 1
          0 0 1 -0.07548943162 -0.029187431559 0.99671936035
          0 0 1 -0.11360822618 -0.065414503217 0.99136984348
          0.21145108342 0.11708926409 0.97034972906 -0.095407657325 -0.1145728752 0.9888227582
          0.075489662588 0.029187560081 0.99671930075 0 0 1
          0 0 1 0.11360847205 0.065414652228 0.99136978388
          -0.21145103872 -0.11708931625 0.97034972906 0 0 1
          0 0 1 0 0 1
          -0.073700807989 -0.11383920163 0.9907617569 -0.13118165731 -0.14717133343 0.98037338257
          -0.27074423432 -0.27311950922 0.92309439182 -0.10632809252 -0.70052981377 0.70565736294
          -0.66461986303 -0.69514852762 0.27395063639 0.32598647475 -0.63056910038 0.70435458422
          0.63193744421 0.01158017572 0.77493286133 0.59345304966 -0.38447445631 0.70710170269
          0.13118113577 0.14717063308 0.98037356138 0.27074357867 0.27311861515 0.92309486866
          0.32979795337 0.20015057921 0.92259043455 0.073700480163 0.11383858323 0.9907618165
          0.10632731766 0.70052504539 0.70566225052 0.66462111473 0.6951494813 0.27394518256
          -0.32598474622 0.63056492805 0.70435917377 -0.63193482161 -0.011580390856 0.7749350071
          -0.59344696999 0.38447192311 0.7071081996 -0.32979795337 -0.20015054941 0.92259043455
          -0.32263624668 -0.20928961039 0.92309463024 -0.13691098988 -0.62108415365 0.77169287205
          -0.25346115232 -0.29349175096 0.92174834013 0 0 1
          -0.70867162943 0.03627577424 0.70460528135 -0.81925094128 -0.5053114295 0.27108722925
          -0.54969519377 0.44519692659 0.70684856176 0.13691166043 0.62108796835 0.7716896534
          -0.25358048081 0.65918499231 0.70793503523 0.32263660431 0.2092898041 0.92309445143
          0.25346118212 0.29349213839 0.92174822092 0 0 1
          0.70867347717 -0.036274712533 0.70460343361 0.81925183535 0.50531220436 0.27108314633
          0.54968959093 -0.4451931417 0.70685529709 0.25358119607 -0.65918529034 0.70793455839
          0.63519316912 0.75678133965 0.15431012213 -0.87050175667 -0.46734899282 -0.15430994332
          -0.63519227505 -0.75678026676 0.15431933105 0.87050163746 0.46734893322 -0.1543109417
          0 0 -1 -0.055113185197 -0.085129797459 -0.99484443665
          -0.1048451215 -0.11762548983 -0.98750782013 -0.27075830102 -0.27313497663 -0.92308568954
          0.24706226587 0.13045422733 -0.96017807722 -0.2470613718 -0.13045395911 -0.96017831564
          0 0 -1 0 0 -1
          -0.1086909622 -0.701402843 -0.70442909002 -0.66125822067 -0.6993278861 -0.27143704891
          0.32439890504 -0.62985980511 -0.70572090149 0.63683319092 0.0056809028611 -0.77098071575
          0.59411376715 -0.3834605515 -0.70709747076 0.10484465212 0.11762498319 -0.98750793934
          0.27075824142 0.27313476801 -0.92308580875 0.3409011662 0.18584989011 -0.92154556513
          0 0 -1 0.055112879723 0.085129395127 -0.99484449625
          0 0 -1 0 0 -1
          0.10869079828 0.70140004158 -0.70443189144 0.66125911474 0.69932883978 -0.27143245935
          -0.32439652085 0.62985664606 -0.70572477579 -0.63682997227 -0.0056812977418 -0.77098333836
          -0.59411114454 0.38345888257 -0.7071005702 -0.34089928865 -0.18584893644 -0.9215464592
          0.63519328833 0.7567820549 -0.15430611372 -0.87050038576 -0.46734830737 -0.15431982279
          -0.63519316912 -0.75678139925 -0.15431009233 0.87050157785 0.46734875441 -0.15431185067
          0.17812882364 0.21522413194 0.96018159389 -0.13654157519 -0.078623950481 0.98750931025
          -0.17812937498 -0.2152248323 0.96018135548 -0.32263293862 -0.20929539204 0.92309451103
          0.13654240966 0.078624360263 0.98750919104 0 0 1
          -0.13554519415 -0.62225711346 0.77098870277 -0.25150576234 -0.29577288032 0.92155480385
          0 0 1 -0.094581529498 -0.036574523896 0.99484503269
          0 0 1 0 0 1
          -0.70881479979 0.036763958633 0.70443594456 -0.81957685947 -0.50459235907 0.27144116163
          -0.55037534237 0.44612690806 0.70573204756 0.13554415107 0.6222537756 0.7709916234
          -0.25411573052 0.65986841917 0.70710599422 0.3226338923 0.20929573476 0.9230940938
          0.25150460005 0.29577171803 0.9215555191 0.094582013786 0.03657457605 0.99484497309
          0 0 1 0 0 1
          0.70881634951 -0.036764644086 0.70443433523 0.81957864761 0.50459319353 0.27143415809
          0.55037969351 -0.44613012671 0.70572662354 0.25411716104 -0.65987074375 0.70710331202
          -0.87050038576 -0.46734833717 0.15431983769 0.63519334793 0.75678175688 0.15430751443
          0.87050187588 0.46734890342 0.15430989861 -0.63519316912 -0.75678133965 0.15431007743
          0 0 -1 0 0 -1
          0 0 -1 -0.36001965404 0.93294471502 0
          0 0 -1 0 0 -1
          -0.83981734514 0.54286909103 0 -0.13163797557 -0.070014111698 -0.98882228136
          0 0 -1 0.25682997704 0.96645659208 0
          0 0 -1 0 0 -1
          0.77592396736 0.63082641363 0 0 0 -1
          0 0 -1 0.99853265285 0.054153427482 0
          0 0 -1 0.83981734514 -0.54286909103 0
          0.043981548399 0.067942753434 -0.99671930075 0 0 -1
          0.36001965404 -0.93294471502 0 0 0 -1
          0.087226592004 0.097864456475 -0.99136978388 0 0 -1
          -0.25682997704 -0.96645659208 0 0 0 -1
          -0.77592396736 -0.63082641363 0 -0.15778498352 -0.18309980631 -0.97034960985
          -0.99853265285 -0.054153427482 0 0.13163888454 0.070014514029 -0.98882210255
          -0.043981496245 -0.067942604423 -0.99671936035 0 0 -1
          0 0 -1 -0.3600204885 0.932944417 0
          0 0 -1 0 0 -1
          -0.83981686831 0.54286986589 0 0 0 -1
          -0.087226592004 -0.097864367068 -0.99136978388 0 0 -1
          0.25682920218 0.9664568305 0 0 0 -1
          0.7759245038 0.63082581758 0 0.15778462589 0.18309931457 -0.97034972906
          0 0 -1 0.99853265285 0.054153420031 0
          0 0 -1 0 0 -1
          0.83981740475 -0.54286897182 0 0 0 -1
          0 0 -1 0.36001902819 -0.93294495344 0
          0 0 -1 -0.2568295002 -0.96645671129 0
          0 0 -1 0 0 -1
          -0.77592390776 -0.63082653284 0 -0.99853265285 -0.054153487086 0
          -0.27073854208 -0.27312445641 -0.92309463024 -0.63596767187 -0.0072587290779 -0.77168154716
          0.17084872723 0.09837950021 -0.98037350178 0.12648579478 0.048912629485 -0.9907617569
          -0.33904823661 -0.18821832538 -0.92174839973 0 0 -1
          -0.10913234204 -0.7011423111 -0.70462018251 -0.66189426184 -0.69885808229 -0.27109664679
          0.32361873984 -0.62897723913 -0.70686531067 0.63597261906 0.0072595607489 -0.77167749405
          0.59354990721 -0.38277927041 -0.70793962479 0.27073863149 0.27312469482 -0.92309451103
          -0.17084880173 -0.098379395902 -0.98037350178 -0.12648589909 -0.048912495375 -0.9907617569
          0.33904904127 0.188218683 -0.92174804211 0 0 -1
          0.10913309455 0.70114511251 -0.70461726189 0.66189557314 0.69885993004 -0.27108860016
          -0.3236219883 0.62898141146 -0.70686012506 -0.59355276823 0.38278284669 -0.70793527365
          0.32263210416 0.20929569006 -0.92309468985 0.14032484591 0.61626696587 -0.77493482828
          0.2632535696 0.28200015426 -0.92259061337 0.70748537779 -0.038899801672 -0.70565658808
          0.8161739707 0.50873720646 -0.27394619584 0.55075490475 -0.44783300161 -0.70435404778
          -0.14032521844 -0.61626958847 -0.77493268251 0.25524690747 -0.65943682194 -0.70710116625
          -0.32263255119 -0.20929585397 -0.92309451103 -0.26325458288 -0.28200143576 -0.92258995771
          -0.70749241114 0.038899440318 -0.70564961433 -0.81617283821 -0.50873601437 -0.27395176888
          -0.55075407028 0.44783228636 -0.70435518026 -0.25524562597 0.65943342447 -0.70710480213
          0 0 1 0 0 1
          0.0954118222 0.11457742006 0.98882180452 0 0 1
          0 0 1 -0.075493581593 -0.029189033434 0.99671900272
          0 0 1 -0.11361458153 -0.065418168902 0.9913688302
          0.21145910025 0.11709416658 0.97034734488 -0.095411598682 -0.11457699537 0.98882192373
          0.075493812561 0.029189167544 0.99671894312 0 0 1
          0 0 1 0.11361482739 0.065418317914 0.9913688302
          -0.21145907044 -0.11709421128 0.97034734488 0 0 1
          0 0 1 0 0 1
          -0.073704905808 -0.11384553462 0.99076068401 -0.13118904829 -0.14717963338 0.9803711772
          -0.27075889707 -0.27313429117 0.92308574915 -0.10632910579 -0.70053642988 0.70565068722
          -0.66461998224 -0.69514894485 0.27394944429 0.32598945498 -0.63057500124 0.7043479681
          0.63194721937 0.011581839994 0.77492487431 0.5934586525 -0.38447800279 0.70709508657
          0.13118851185 0.14717890322 0.98037135601 0.27075824142 0.2731333971 0.92308622599
          0.32981622219 0.20016087592 0.92258161306 0.073704570532 0.11384490132 0.99076080322
          0.10632832348 0.7005315423 0.7056556344 0.66462117434 0.69514989853 0.27394402027
          -0.32598772645 0.63057070971 0.70435261726 -0.63194453716 -0.011582055129 0.77492707968
          -0.59345257282 0.38447549939 0.70710158348 -0.32981622219 -0.20016086102 0.92258167267
          -0.32265371084 -0.20930095017 0.92308598757 -0.13691468537 -0.62109321356 0.77168488503
          -0.25347515941 -0.29350724816 0.92173957825 0 0 1
          -0.70867806673 0.03627614677 0.70459878445 -0.8192512989 -0.50531148911 0.27108600736
          -0.54970031977 0.44520109892 0.70684194565 0.13691534102 0.62109696865 0.77168172598
          -0.253582865 0.65919113159 0.70792853832 0.32265403867 0.20930114388 0.92308580875
          0.25347515941 0.29350760579 0.92173945904 0 0 1
          0.70868003368 -0.036275081336 0.7045968771 0.81925219297 0.50531220436 0.27108195424
          0.54969471693 -0.44519728422 0.70684874058 0.25358361006 -0.65919142962 0.70792794228
          0.63519316912 0.75678133965 0.15431012213 -0.87050175667 -0.46734899282 -0.15430994332
          -0.63519227505 -0.75678026676 0.15431933105 0.87050163746 0.46734893322 -0.1543109417
          0 0 -1 -0.055110141635 -0.085125096142 -0.99484503269
          -0.10483923554 -0.11761890352 -0.98750925064 -0.27074360847 -0.27312022448 -0.92309439182
          0.24705322087 0.13044853508 -0.96018117666 -0.247052297 -0.13044826686 -0.96018147469
          0 0 -1 0 0 -1
          -0.10868997872 -0.7013964057 -0.70443564653 -0.66125810146 -0.69932752848 -0.2714382112
          0.3243958652 -0.62985390425 -0.70572757721 0.63682359457 0.0056791002862 -0.77098864317
          0.59410822392 -0.38345700502 -0.70710402727 0.10483876616 0.11761839688 -0.98750936985
          0.27074360847 0.27311998606 -0.92309445143 0.3408832252 0.18583928049 -0.92155432701
          0 0 -1 0.055109836161 0.085124693811 -0.99484503269
          0 0 -1 0 0 -1
          0.10868981481 0.70139354467 -0.70443850756 0.66125899553 0.69932842255 -0.27143365145
          -0.32439348102 0.62985080481 -0.70573139191 -0.63682043552 -0.0056795035489 -0.77099120617
          -0.59410560131 0.38345530629 -0.70710718632 -0.34088128805 -0.18583831191 -0.92155522108
          0.63519328833 0.7567820549 -0.15430611372 -0.87050038576 -0.46734830737 -0.15431982279
          -0.63519316912 -0.75678139925 -0.15431009233 0.87050157785 0.46734875441 -0.15431185067
          0.17813624442 0.21523186564 0.96017849445 -0.13654924929 -0.078628376126 0.98750793934
          -0.17813678086 -0.2152325511 0.96017825603 -0.32265037298 -0.20930674672 0.92308580875
          0.13655008376 0.078628785908 0.98750776052 0 0 1
          -0.13554891944 -0.62226617336 0.77098077536 -0.25151982903 -0.29578831792 0.92154598236
          0 0 1 -0.094586759806 -0.036576546729 0.99484443665
          0 0 1 0 0 1
          -0.7088213563 0.036764323711 0.70442932844 -0.8195772171 -0.50459241867 0.27143996954
          -0.55038040876 0.44613105059 0.70572549105 0.13554786146 0.62226271629 0.77098369598
          -0.25411811471 0.65987455845 0.70709937811 0.32265138626 0.20930707455 0.92308539152
          0.25151866674 0.29578709602 0.92154669762 0.094587236643 0.036576598883 0.99484443665
          0 0 1 0 0 1
          0.70882290602 -0.036764997989 0.70442771912 0.81957900524 0.50459325314 0.2714329958
          0.55038481951 -0.44613423944 0.70572000742 0.25411954522 -0.65987682343 0.7070967555
          -0.87050038576 -0.46734833717 0.15431983769 0.63519334793 0.75678175688 0.15430751443
          0.87050187588 0.46734890342 0.15430989861 -0.63519316912 -0.75678133965 0.15431007743
          -0.77289056778 -0.33087486029 -0.54144436121 -0.76550871134 -0.32409277558 -0.55584192276
          -0.72952622175 -0.2972279489 -0.61599266529 -0.53751432896 -0.2357929647 -0.80961722136
          -0.78058236837 -0.31852191687 -0.53780561686 -0.7471216321 -0.29011169076 -0.59803384542
          -0.47158059478 -0.18703217804 -0.86176025867 -0.40607851744 -0.16640457511 -0.89855980873
          -0.74174243212 -0.32650113106 -0.58584570885 -0.76672500372 -0.34299618006 -0.54266601801
          -0.74469363689 -0.33934634924 -0.57469594479 -0.78111577034 -0.36190849543 -0.50880295038
          -0.71780967712 -0.33251485229 -0.61170506477 -0.77415066957 -0.35826146603 -0.52186155319
          -0.76631009579 -0.35416024923 -0.5360404253 -0.63082635403 0.77592402697 -2.9699421589e-007
          -0.77191311121 -0.37209931016 -0.51545345783 0 0 -1
          -0.7679502368 -0.36787074804 -0.52433151007 -0.7744525075 -0.38732552528 -0.50020217896
          -0.7733886838 -0.38102316856 -0.50664716959 -0.78353345394 -0.40401056409 -0.47207072377
          -0.78780317307 -0.40427920222 -0.46467679739 -0.79352766275 -0.42518272996 -0.4353544414
          -0.77955639362 -0.38885372877 -0.49100369215 -0.79870259762 -0.41765218973 -0.43317526579
          -0.80250871181 -0.44116160274 -0.40169170499 -0.80503028631 -0.45650529861 -0.3788523674
          -0.80626922846 -0.4587469697 -0.37347173691 -0.80538064241 -0.46103331447 -0.37257263064
          -0.82373583317 -0.40610015392 -0.39565387368 -0.8194450736 -0.44105753303 -0.36603009701
          -0.76905071735 -0.44556546211 -0.45829293132 -0.80322104692 -0.46976339817 -0.36627620459
          -0.7958753705 -0.37566384673 -0.47482529283 -0.78002750874 -0.36955943704 -0.50495839119
          -0.76791977882 -0.36157596111 -0.52873629332 -0.7585247159 -0.35365793109 -0.54732650518
          -0.7523124814 -0.34646609426 -0.56034559011 -0.74991708994 -0.3404468596 -0.56720393896
          -0.7520930171 -0.33580294251 -0.56709128618 -0.76136869192 -0.33303529024 -0.55624198914
          -0.78081679344 -0.32054388523 -0.53626185656 -0.80441123247 -0.37155592442 -0.46353939176
          -0.90823745728 -0.37018302083 -0.1951135397 -0.78890061378 -0.33343961835 -0.51619172096
          -0.82596856356 -0.32924920321 -0.45757064223 -0.77199262381 -0.3345285356 -0.54047948122
          -0.75799244642 -0.33320739865 -0.56073188782 -0.74705320597 -0.33155354857 -0.57618033886
          -0.73967951536 -0.33082222939 -0.58602976799 -0.7365732193 -0.33202415705 -0.58925360441
          -0.73863458633 -0.33594438434 -0.58443158865 -0.77067422867 -0.32838070393 -0.54610198736
          -0.74883854389 -0.34478768706 -0.56600558758 -0.79538172483 -0.34082344174 -0.50120586157
          -0.77151995897 -0.33337140083 -0.54186755419 -0.80152761936 -0.28310990334 -0.52668994665
          -0.91344070435 -0.18808580935 -0.36090138555 -0.78341519833 -0.29078406096 -0.54927700758
          -0.76339644194 -0.30221647024 -0.57086867094 -0.74758768082 -0.30765199661 -0.58861100674
          -0.73543596268 -0.31205484271 -0.60146135092 -0.72516787052 -0.31641277671 -0.61156725883
          -0.72130793333 -0.32695242763 -0.61058741808 -0.72185498476 -0.33955514431 -0.60301548243
          -0.763625741 -0.34129282832 -0.54808294773 -0.73046028614 -0.36332350969 -0.57829385996
          -0.76681464911 -0.36798396707 -0.5259116888 -0.81281107664 -0.20612500608 -0.54483997822
          -0.76436924934 -0.24900232255 -0.59475839138 -0.73965108395 -0.27196368575 -0.61559081078
          -0.72152328491 -0.28099322319 -0.63280880451 -0.71229314804 -0.29193922877 -0.63828670979
          -0.68888729811 -0.30053687096 -0.6596301198 -0.69606560469 -0.28978201747 -0.65690112114
          -0.67658054829 -0.31000295281 -0.66793483496 -0.6650057435 -0.32783401012 -0.67103815079
          -0.73994600773 -0.38861548901 -0.54905188084 -0.68757623434 -0.38992419839 -0.61253416538
          -0.78162288666 -0.454456985 -0.42724058032 -0.64729976654 -0.48847854137 -0.58514249325
          -0.77982193232 -0.19961240888 -0.59332340956 -0.8250233531 -0.11967902631 -0.552280128
          -0.84424442053 -0.10677198321 -0.52521532774 -0.87888973951 -0.12150346488 -0.46129137278
          -0.72736907005 -0.24113972485 -0.64248412848 -0.75131243467 -0.22087621689 -0.62188690901
          -0.70242875814 -0.24991071224 -0.66643714905 -0.67793577909 -0.25697523355 -0.68874287605
          -0.64920723438 -0.25530910492 -0.7164825201 -0.62158817053 -0.25555145741 -0.74048739672
          -0.58837771416 -0.25512298942 -0.76728343964 -0.51402598619 -0.2612798512 -0.81701296568
          -0.42551341653 -0.71011447906 -0.56095963717 -0.66792708635 -0.63351422548 -0.39055487514
          -0.76861745119 -0.58721989393 -0.25377160311 -0.28380635381 -0.50327056646 -0.81619405746
          -0.34796085954 -0.25388726592 -0.90247684717 -0.77910190821 -0.55418425798 -0.29305294156
          -0.86339366436 -0.4426086545 -0.24217541516 -0.85051864386 -0.40941882133 -0.33014276624
          -0.83678418398 -0.43412658572 -0.3336559236 -0.82945483923 -0.38704016805 -0.40274631977
          -0.83800941706 -0.44181361794 -0.3202201426 -0.7492531538 -0.38959088922 -0.53557318449
          -0.81624287367 -0.43816274405 -0.3765116632 -0.85467714071 -0.40556323528 -0.3241071105
          -0.8433483839 -0.36971318722 -0.38996875286 -0.86238974333 -0.41029050946 -0.29655635357
          -0.87564712763 -0.42289158702 -0.23324841261 -0.86890769005 -0.39487817883 -0.29844707251
          -0.86500042677 -0.44942358136 -0.22314268351 -0.88145577908 -0.4280089438 -0.19960980117
          -0.88533180952 -0.40185192227 -0.23388585448 -0.88071018457 -0.3900436461 -0.26872944832
          -0.87626188993 -0.44744351506 -0.17877203226 -0.88664877415 -0.43362376094 -0.16069969535
          -0.89319825172 -0.40719661117 -0.19075596333 -0.89239495993 -0.3976533711 -0.21331425011
          -0.87621557713 -0.45934259892 -0.14577589929 -0.89068317413 -0.43963390589 -0.11578211933
          -0.90083926916 -0.41064381599 -0.14092648029 -0.89683836699 -0.40924021602 -0.16793860495
          -0.88544976711 -0.45604094863 -0.089472748339 -0.89367228746 -0.44468396902 -0.060050327331
          -0.90706217289 -0.41317802668 -0.080759868026 -0.87823194265 -0.46099516749 -0.12724809349
          -0.90366506577 -0.4114036262 -0.11889714748 -0.88473546505 -0.46581694484 -0.01605334878
          -0.89359891415 -0.44853013754 -0.017370650545 -0.90469545126 -0.4213617444 -0.063090912998
          -0.88072377443 -0.47106909752 -0.049189310521 -0.88603681326 -0.46135592461 0.045710198581
          -0.8976303339 -0.44021493196 -0.02169336006 -0.89372587204 -0.44428414106 0.06217456609
          -0.87767344713 -0.46897545457 -0.098748795688 -0.87957465649 -0.47474098206 0.031135182828
          -0.86352884769 -0.46026992798 -0.20608144999 -0.84124535322 -0.43506023288 -0.32098114491
          -0.87283009291 -0.36615312099 -0.32264453173 -0.89551800489 -0.36731624603 -0.25124934316
          -0.90984946489 -0.37945684791 -0.16788835824 -0.91761684418 -0.38591375947 -0.095130674541
          -0.924480021 -0.38099855185 -0.013297183439 -0.90924215317 -0.41603961587 0.013775294647
          -0.90586620569 -0.41920846701 0.060586396605 -0.91994959116 -0.3836286068 0.080757804215
          -0.89186799526 -0.43904331326 0.10868516564 -0.90736198425 -0.40973806381 0.093856193125
          -0.90196484327 -0.41443678737 0.12125022709 -0.91210657358 -0.37814074755 0.15833863616
          -0.88675868511 -0.43553033471 0.15482999384 -0.89770621061 -0.40824508667 0.16570918262
          -0.88134765625 -0.42994314432 0.19589602947 -0.89442175627 -0.40405783057 0.19169518352
          -0.89608633518 -0.36872226 0.24712994695 -0.8908803463 -0.39393240213 0.22616246343
          -0.87352222204 -0.42361539602 0.23981010914 -0.88697260618 -0.39742824435 0.23522415757
          -0.8832809329 -0.36588031054 0.29316607118 -0.86671191454 -0.39864856005 0.299816221
          -0.87622642517 -0.38520607352 0.28955739737 -0.86580079794 -0.40566939116 0.29295271635
          -0.84730994701 -0.36525389552 0.38555860519 -0.83385026455 -0.3861939013 0.39439576864
          -0.85859054327 -0.40744352341 0.31114631891 -0.86588025093 -0.44008803368 0.23785278201
          -0.85481607914 -0.41827532649 0.30714040995 -0.85525155067 -0.43460047245 0.28225383162
          -0.87203228474 -0.45476984978 0.18095329404 -0.86909133196 -0.45244398713 0.19993674755
          -0.88068163395 -0.45140165091 0.14365364611 -0.87960529327 -0.46401107311 0.10482463241
          -0.87465000153 -0.47595798969 0.091931603849 -0.82956904173 -0.42086276412 0.36700102687
          -0.86189949512 -0.45361021161 0.22664299607 -0.78654819727 -0.46684241295 0.40422773361
          -0.8758829236 -0.46553036571 0.1269274503 -0.77123427391 -0.3423063457 0.53667873144
          -0.75528615713 -0.34033805132 0.56010073423 -0.74663001299 -0.33311015368 0.57583093643
          -0.58908164501 -0.24929608405 0.76865744591 -0.77943539619 -0.35104873776 0.51888847351
          -0.63058054447 0.77612382174 -0.0001919996721 -0.63082885742 0.77592200041 3.4171275729e-006
          -0.77427643538 -0.33206307888 0.5387300849 -0.72758978605 -0.3178896606 0.60791391134
          -0.73178106546 -0.3065431118 0.60870999098 -0.78232395649 -0.31994640827 0.53441888094
          -0.73480921984 -0.29441612959 0.61104381084 -0.8037135601 -0.33907881379 0.48894786835
          -0.71010190248 -0.27458205819 0.64835172892 -0.78434336185 -0.33293968439 0.52340865135
          -0.7619933486 -0.33567893505 0.55379223824 -0.76406800747 -0.3454067111 0.54488009214
          -0.76440787315 -0.3542252481 0.53870683908 -0.75244688988 -0.33871430159 0.56488609314
          -0.77194482088 -0.37212267518 0.51538908482 -0.76614314318 -0.36627557874 0.52807849646
          -0.74992287159 -0.34296426177 0.56567764282 -0.77448177338 -0.38735336065 0.50013530254
          -0.77062100172 -0.37909731269 0.51227772236 -0.7520480752 -0.34872871637 0.55929595232
          -0.77951192856 -0.40305167437 0.47948986292 -0.7778724432 -0.39232036471 0.49091663957
          -0.75806188583 -0.35581895709 0.54656654596 -0.79135006666 -0.41909950972 0.44510751963
          -0.78448456526 -0.39909815788 0.47466263175 -0.7673099637 -0.36380970478 0.52808892727
          -0.79601955414 -0.42135363817 0.43452727795 -0.77929461002 -0.37206333876 0.50425070524
          -0.80396485329 -0.4512475729 0.38731920719 -0.82417070866 -0.42748978734 0.37147700787
          -0.79369205236 -0.37990298867 0.47510701418 -0.79594802856 -0.44395881891 0.41154262424
          -0.88068294525 -0.45755621791 0.12263697386 -0.81043761969 -0.36748024821 0.45623359084
          -0.9001031518 -0.36260321736 0.2415228039 0 0 1
          0.83945018053 0.48053655028 0.25378739834 0.84136533737 0.48181948066 0.24485574663
          -0.63082689047 0.77592360973 2.0755164769e-006 -0.63082641363 0.77592396736 8.5424557028e-007
          -0.63082635403 0.77592408657 -1.2636945712e-008 -0.63082635403 0.77592408657 -1.0769457504e-007
          -0.78732395172 -0.41974705458 0.45158982277 -0.76215589046 -0.35122779012 0.54383581877
          -0.74927163124 -0.34899717569 0.56284362078 -0.75766515732 -0.35430464149 0.54809832573
          -0.73862409592 -0.33932155371 0.582490623 -0.73633652925 -0.33474814892 0.58800697327
          -0.73929572105 -0.33316749334 0.58518481255 -0.74658489227 -0.33377861977 0.57550221682
          -0.7574608326 -0.33555966616 0.56004714966 -0.77143734694 -0.3372399807 0.53958648443
          -0.79157924652 -0.33673414588 0.50991415977 -0.8373363018 -0.32812103629 0.43726933002
          -0.7601301074 -0.39439430833 0.51638686657 -0.72713476419 -0.36742383242 0.5798920393
          -0.72513884306 -0.41493397951 0.54954838753 -0.71772927046 -0.33861863613 0.60844236612
          -0.72100526094 -0.32574960589 0.61158692837 -0.72673755884 -0.3184633553 0.60863256454
          -0.73616719246 -0.31354811788 0.59978783131 -0.74805051088 -0.30684122443 0.58844619989
          -0.76459759474 -0.30445918441 0.56806260347 -0.80654537678 -0.29327431321 0.51329785585
          -0.78266727924 -0.29568260908 0.54772597551 -0.93039125204 -0.17303110659 0.3231600225
          -0.80852770805 -0.21097695827 0.54933750629 -0.75749361515 -0.51628112793 0.39957129955
          -0.68381726742 -0.46808111668 0.55972671509 -0.6210437417 -0.34508177638 0.70372098684
          -0.67824465036 -0.3074234724 0.66743916273 -0.65754884481 -0.3131403029 0.68525367975
          -0.68953120708 -0.29894250631 0.65968185663 -0.70229959488 -0.29183745384 0.64931207895
          -0.71770346165 -0.28980532289 0.6331782341 -0.73591268063 -0.27658376098 0.61800807714
          -0.72076368332 -0.27773588896 0.6351082325 -0.75411164761 -0.26769638062 0.59971183538
          -0.7777992487 -0.2533416152 0.57519245148 -0.80881130695 -0.1766282022 0.56091594696
          -0.83978807926 -0.13091632724 0.52689367533 -0.86094361544 -0.081693157554 0.50209790468
          -0.89611577988 -0.099920585752 0.43242612481 -0.54118084908 -0.39008751512 0.74495303631
          -0.52428591251 -0.76034247875 0.38341042399 -0.71729010344 -0.61940544844 0.31911104918
          -0.33934473991 -0.79974943399 0.49522316456 -0.51234805584 -0.24391697347 0.82340997458
          -0.4246403873 -0.29233705997 0.85686612129 -0.57287234068 -0.24809330702 0.78119587898
          -0.60923433304 -0.25025475025 0.75246667862 -0.63950806856 -0.25161969662 0.72644126415
          -0.67160409689 -0.25443789363 0.6958514452 -0.69391334057 -0.2488065064 0.67570674419
          -0.71813225746 -0.24212506413 0.65242743492 -0.74962264299 -0.22695283592 0.62173807621
          -0.77982568741 -0.19247327745 0.59567266703 -0.81213504076 -0.11943106353 0.57111549377
          -0.87062168121 -0.06879620254 0.48711907864 -0.65243834257 -0.72127950191 0.23255117238
          -0.7336640358 -0.63804298639 0.23374813795 -0.77435165644 -0.58886039257 0.23156623542