<VTKFile type="PolyData" version="0.1" byte_order="LittleEndian" header_type="UInt64">
  <PolyData>
    <Piece NumberOfPoints="5193" NumberOfVerts="0" NumberOfLines="0" NumberOfStrips="0" NumberOfPolys="6698">
      <PointData Normals="Normals">
        <DataArray type="Float32" Name="Normals" NumberOfComponents="3" format="ascii" RangeMin="0.99999995868" RangeMax="1.0000000388">
          1 0 0 1 0 0
          1 0 0 -0.010034718551 0.047502651811 -0.9988207221
          1 0 0 1 0 0
          -0.010594892316 -0.16716019809 -0.98587280512 -0.0033468182664 -0.052935864776 -0.9985923171
          -0.016769655049 -0.12164859474 -0.99243158102 1 0 0
          1 0 0 -0.0061756963842 0.28844586015 -0.95747631788
          -0.016954831779 0.10308235139 -0.99452829361 -0.0013636306394 0.18693827093 -0.98237073421
          1 0 0 0 0.46738478541 -0.88405400515
          0.007795767393 0.29506102204 -0.95544660091 0.015144976787 0.40661683679 -0.91347324848
          -0.0091529609635 0.32761904597 -0.94476556778 0.003297632793 0.38317045569 -0.92367178202
          1 0 0 0 0.65238970518 -0.75788366795
          1 0 0 0 0.80468708277 -0.59369909763
          1 0 0 0 0.91661894321 -0.39976203442
          1 0 0 1 0 0
          -3.46439536e-018 0.98258906603 -0.18579231203 1 0 0
          1 0 0 0 0.99929511547 0.037539750338
          1 0 0 0 0.96588647366 0.25896579027
          1 0 0 0 0.88405400515 0.46738478541
          1 0 0 1 0 0
          0 0.75788366795 0.65238970518 1 0 0
          1 0 0 0 0.59369909763 0.80468708277
          1 0 0 1 0 0
          -0.0028907759115 0.40005502105 0.9164865613 1 0 0
          -0.010531042702 0.1663594842 0.98600894213 -0.015831412748 0.40949422121 0.91217535734
          -0.00098223274108 0.25458303094 0.96705043316 1 0 0
          1 0 0 -0.014788514934 -0.03034469299 0.99943006039
          -0.013235654682 0.10691445321 0.99418014288 1 0 0
          1 0 0 -0.0061304718256 -0.28925693035 0.95723187923
          -0.033306460828 -0.056993559003 0.99781882763 -0.012981045991 -0.11721016467 0.99302226305
          -0.0012693142053 -0.1881287545 0.98214358091 1 0 0
          0 -0.46738478541 0.88405400515 0.0077725593001 -0.29424926639 0.95569711924
          0.015914712101 -0.40984195471 0.91201770306 -0.0088137779385 -0.32899975777 0.94428884983
          0.0048101902939 -0.39016154408 0.92073386908 1 0 0
          0 -0.65238970518 0.75788366795 1 0 0
          0 -0.80468708277 0.59369909763 1 0 0
          0 -0.91661894321 0.39976203442 1 0 0
          1 0 0 3.46439536e-018 -0.98258906603 0.18579231203
          1 0 0 1 0 0
          0 -0.99929511547 -0.037539750338 1 0 0
          0 -0.96588647366 -0.25896579027 1 0 0
          0 -0.88405400515 -0.46738478541 1 0 0
          1 0 0 0 -0.75788366795 -0.65238970518
          1 0 0 1 0 0
          0 -0.59369909763 -0.80468708277 -0.0025437148288 -0.39844197035 -0.91719001532
          -0.015206705779 -0.4068787694 -0.91335558891 -0.0010538895149 -0.25578302145 -0.96673363447
          1 0 0 1 0 0
          1 0 0 0 0.058738827705 -0.99827337265
          1 0 0 0 -0.28635826707 -0.95812261105
          1 0 0 1 0 0
          1 0 0 0 0.39651066065 -0.91803014278
          1 0 0 1 0 0
          0 0.68663436174 -0.72700291872 1 0 0
          1 0 0 0 0.89386385679 -0.4483384788
          1 0 0 1 0 0
          0 0.99329704046 -0.11558994651 1 0 0
          1 0 0 0 0.97291100025 0.23118005693
          1 0 0 1 0 0
          0 0.8352214694 0.5499137044 1 0 0
          1 0 0 0 0.59666144848 0.80249303579
          0 0.28635904193 0.95812237263 0 -0.058739181608 0.99827337265
          0 -0.39651063085 0.91803014278 0 -0.68663442135 0.72700285912
          1 0 0 0 -0.89386385679 0.4483384788
          1 0 0 0 -0.99329698086 0.11559002846
          1 0 0 0 -0.97291100025 -0.23117990792
          1 0 0 0 -0.83522135019 -0.54991388321
          0 -0.5966616869 -0.80249285698 1 0 0
          1 0 0 0 0.058739289641 -0.99827337265
          0 -0.28635895252 -0.95812243223 1 0 0
          1 0 0 0 0.39651066065 -0.91803008318
          1 0 0 1 0 0
          0 0.68663442135 -0.72700285912 1 0 0
          1 0 0 0 0.89386385679 -0.4483384788
          1 0 0 1 0 0
          0 0.99329698086 -0.11559002846 1 0 0
          1 0 0 0 0.97291100025 0.23117990792
          1 0 0 1 0 0
          0 0.83522135019 0.54991388321 1 0 0
          1 0 0 0 0.5966616869 0.80249285698
          1 0 0 1 0 0
          0 0.28635835648 0.95812261105 1 0 0
          1 0 0 0 -0.058738708496 0.99827337265
          1 0 0 0 -0.39651063085 0.91803014278
          1 0 0 0 -0.68663436174 0.72700291872
          1 0 0 0 -0.89386385679 0.4483384788
          1 0 0 0 -0.99329704046 0.11558994651
          1 0 0 0 -0.97291100025 -0.23118005693
          1 0 0 0 -0.8352214694 -0.5499137044
          0 -0.59666144848 -0.80249303579 0 0.058739181608 -0.99827337265
          0 -0.28635904193 -0.95812237263 0 0.39651063085 -0.91803014278
          0 0.68663442135 -0.72700285912 1 0 0
          0 0.89386385679 -0.4483384788 1 0 0
          0 0.99329698086 -0.11559002846 1 0 0
          0 0.97291100025 0.23117990792 1 0 0
          0 0.83522135019 0.54991388321 1 0 0
          0 0.5966616869 0.80249285698 0 0.28635826707 0.95812261105
          0 -0.058738827705 0.99827337265 0 -0.39651066065 0.91803014278
          0 -0.68663436174 0.72700291872 0 -0.89386385679 0.4483384788
          0 -0.99329704046 0.11558994651 0 -0.97291100025 -0.23118005693
          0 -0.8352214694 -0.5499137044 0 -0.59666144848 -0.80249303579
          1 0 0 1 0 0
          0 0.058738708496 -0.99827337265 0 -0.28635835648 -0.95812261105
          1 0 0 0 0.39651063085 -0.91803014278
          1 0 0 0 0.68663436174 -0.72700291872
          1 0 0 0 0.89386385679 -0.4483384788
          1 0 0 0 0.99329704046 -0.11558994651
          1 0 0 0 0.97291100025 0.23118005693
          1 0 0 0 0.8352214694 0.5499137044
          0 0.59666144848 0.80249303579 0 0.28635895252 0.95812243223
          0 -0.058739289641 0.99827337265 0 -0.39651066065 0.91803008318
          0 -0.68663442135 0.72700285912 0 -0.89386385679 0.4483384788
          0 -0.99329698086 0.11559002846 0 -0.97291100025 -0.23117990792
          0 -0.83522135019 -0.54991388321 0 -0.5966616869 -0.80249285698
          0 -0.99862974882 -0.052331659943 1 0 0
          0 -0.9660102129 -0.25850382447 1 0 0
          1 0 0 0 -0.99450773001 0.10466331989
          1 0 0 1 0 0
          0 -0.93344724178 0.35871478915 1 0 0
          1 0 0 0 -0.77692139149 0.62959760427
          1 0 0 1 0 0
          0 -0.54426658154 0.83891230822 1 0 0
          1 0 0 0 -0.25850462914 0.96601003408
          0 0 1 0 -0.014247796498 0.99989849329
          0 0 1 0 0 1
          0 0.052332259715 0.99862974882 0 0 1
          0 0 1 0 0 1
          0 0 1 0 0 1
          0 0 1 0 0 1
          0 0 1 0 0.35871466994 0.93344724178
          0 0.62959861755 0.77692055702 0 0.83891230822 0.54426658154
          0 0.9660102129 0.25850382447 0 0.99862974882 0.052331659943
          1 0 0 0 0.99450773001 -0.10466331989
          1 0 0 1 0 0
          0 0.93344724178 -0.35871478915 1 0 0
          1 0 0 0 0.77692139149 -0.62959760427
          1 0 0 1 0 0
          0 0.54426658154 -0.83891230822 1 0 0
          1 0 0 0 0.25850462914 -0.96601003408
          0 0 -1 0 0.014247796498 -0.99989849329
          0 0 -1 0 0 -1
          0 -0.052332259715 -0.99862974882 0 0 -1
          0 0 -1 0 0 -1
          0 0 -1 0 0 -1
          0 0 -1 0 0 -1
          0 0 -1 0 -0.35871466994 -0.93344724178
          0 -0.62959861755 -0.77692055702 0 -0.83891230822 -0.54426658154
          -1 0 0 -1 0 0
          0.010026903823 -0.047512210906 -0.99882030487 0.010599954985 0.16722267866 -0.98586219549
          0.016788601875 0.12172048539 -0.99242240191 0.003350488143 0.052965395153 -0.99859070778
          0.0061707482673 -0.28853437304 -0.95744967461 0.016932612285 -0.10315781832 -0.99452084303
          0.0013533119345 -0.18706543744 -0.98234653473 0.0091181015596 -0.32776015997 -0.94471693039
          -0.0034204965923 -0.38373863697 -0.92343539 -1 0 0
          0.010523444973 -0.16625696421 0.98602628708 0.0009731206228 -0.25442439318 0.96709215641
          -1 0 0 0.014791418798 0.030353521928 0.99942976236
          0.013211403973 -0.10681308061 0.99419134855 0.0061340346001 0.28920245171 0.95724833012
          0.033318217844 0.056965045631 0.99782007933 0.012994818389 0.11715656519 0.99302846193
          0.0012752799084 0.1880518645 0.98215824366 0.0088413059711 0.32888698578 0.94432789087
          -0.00464932248 0.38941836357 0.92104923725 0.0010599859525 0.25588145852 -0.96670758724
          0 0 -1 0 0 -1
          0 0 -1 0 0 -1
          0 0 -1 0 0 -1
          0 0 -1 0 0 -1
          0 0 -1 0 0 1
          0 0 1 0 0 1
          0 0 1 0 0 1
          0 0 1 0 0 1
          0 0 1 0 0 1
          -0.93986994028 0.3415325284 4.4779688324e-005 -0.99956077337 -0.029595337808 0.0015359865502
          -0.99828404188 0.05855787918 -1.7759635739e-005 -0.96587795019 -0.25898745656 -0.0022958575282
          -0.91831856966 0.39584219456 -7.0258349297e-005 -0.72839701176 0.68515533209 -0.00013180123642
          -0.45053094625 0.89276081324 -0.00011009098671 -0.089068688452 0.99602305889 -0.0022017154843
          0.23045006394 0.97308415174 -1.9596887796e-005 0.54950487614 0.83549052477 -3.037920942e-005
          0.80207121372 0.59722840786 -3.9526847104e-005 0.96586513519 0.25903531909 -0.0022957972251
          0.99828100204 -0.058609426022 -1.239575613e-005 0.99956125021 0.029578670859 0.0015360000543
          0.93992298841 -0.34138652682 5.282231723e-005 0.9491379261 0.31485673785 0.0015527644427
          0.80212903023 0.59715074301 3.6213968997e-005 0.54963952303 0.83540189266 2.3818001864e-005
          0.1941165328 0.98097783327 0.0010989315342 -0.14624194801 0.98924767971 0.0015209122794
          -0.45022684336 0.89291417599 9.3462171208e-005 -0.72820794582 0.68535619974 0.00011486393487
          -0.94912236929 -0.31490367651 0.0015544052003 -0.80207121372 -0.59722840786 3.9526847104e-005
          -0.54950493574 -0.83549046516 3.0379207601e-005 -0.19374957681 -0.98105037212 0.0011014514603
          0.14655961096 -0.98920065165 0.0015287474962 0.45053091645 -0.89276081324 0.00011009098671
          0.72839701176 -0.68515533209 0.00013180123642 0.91825634241 -0.3959864676 -5.957940084e-005
          0.72820794582 -0.68535625935 -0.00011486392759 0.45022687316 -0.89291417599 -9.3462178484e-005
          0.088624924421 -0.99606263638 -0.0022016461007 -0.2306688875 -0.9730322957 -9.868316738e-006
          -0.54963958263 -0.83540189266 -2.3818000045e-005 -0.80212897062 -0.59715080261 -3.6213968997e-005
          0.99860692024 -0.052766237408 -2.1875866878e-006 0.9660140276 0.25848957896 -1.7179385395e-005
          0.93345272541 -0.35870039463 -2.0508668968e-005 0.77690255642 -0.62962085009 1.1290586372e-005
          0.54429155588 -0.83889615536 -2.5955829187e-005 0.25848802924 -0.96601444483 1.2729393347e-005
          -0.05276466161 -0.99860697985 -3.2114447095e-005 -0.35870182514 -0.93345218897 9.4738497864e-006
          -0.6296197176 -0.77690351009 -1.8569935492e-005 -0.83889698982 -0.54429018497 3.9622746044e-006
          -0.9660140276 -0.25848960876 -1.7179387214e-005 -0.99860692024 0.052766237408 -2.1875866878e-006
          -0.93345272541 0.35870039463 -2.0508668968e-005 -0.77690255642 0.62962085009 1.1290586372e-005
          -0.54429155588 0.83889615536 -2.5955829187e-005 -0.25848802924 0.96601444483 1.2729393347e-005
          0.05276466161 0.99860697985 -3.2114447095e-005 0.35870182514 0.93345218897 9.4738497864e-006
          0.6296197176 0.77690351009 -1.8569935492e-005 0.83889698982 0.54429018497 3.9622746044e-006
          -0.99860692024 -0.052766237408 2.1875866878e-006 -0.9660140276 0.25848957896 1.7179385395e-005
          -0.93345272541 -0.35870039463 2.0508668968e-005 -0.77690255642 -0.62962085009 -1.1290586372e-005
          -0.54429155588 -0.83889615536 2.5955829187e-005 -0.25848802924 -0.96601444483 -1.2729393347e-005
          0.05276466161 -0.99860697985 3.2114447095e-005 0.35870182514 -0.93345218897 -9.4738497864e-006
          0.6296197176 -0.77690351009 1.8569935492e-005 0.83889698982 -0.54429018497 -3.9622746044e-006
          0.9660140276 -0.25848960876 1.7179387214e-005 0.99860692024 0.052766237408 2.1875866878e-006
          0.93345272541 0.35870039463 2.0508668968e-005 0.77690255642 0.62962085009 -1.1290586372e-005
          0.54429155588 0.83889615536 2.5955829187e-005 0.25848802924 0.96601444483 -1.2729393347e-005
          -0.05276466161 0.99860697985 3.2114447095e-005 -0.35870182514 0.93345218897 -9.4738497864e-006
          -0.6296197176 0.77690351009 1.8569935492e-005 -0.83889698982 0.54429018497 -3.9622746044e-006
          -1 0 0 -1 0 0
          -1 0 0 -0.70693176985 0.024768775329 -0.70684790611
          -1 0 0 -1 0 0
          -0.70700025558 -0.12272241712 -0.69648391008 -1 0 0
          -1 0 0 -0.70705258846 0.17114089429 -0.68613952398
          -1 0 0 -1 0 0
          -0.70693492889 0.31011936069 -0.63566416502 -1 0 0
          -1 0 0 -1 0 0
          -0.70700728893 0.43544977903 -0.55724698305 -1 0 0
          -1 0 0 -1 0 0
          -0.70699888468 0.54180175066 -0.45453646779 -1 0 0
          -1 0 0 -1 0 0
          -1 0 0 -0.70693171024 0.62452989817 -0.33197882771
          -1 0 0 -1 0 0
          -0.70705246925 0.67978608608 -0.1948531121 -0.70693391562 0.70556282997 -0.049250379205
          -0.70700794458 0.70031237602 0.098500519991 -0.70699894428 0.66453558207 0.24196051061
          -0.70693081617 0.59975939989 0.37488332391 -1 0 0
          -1 0 0 -0.70705199242 0.50863069296 0.49129652977
          -1 0 0 -1 0 0
          -1 0 0 -0.70693391562 0.39542266726 0.586417377
          -1 0 0 -1 0 0
          -1 0 0 -0.70700758696 0.26484394073 0.65574234724
          -1 0 0 -1 0 0
          -0.70700031519 0.12272240222 0.69648385048 -1 0 0
          -1 0 0 -0.70693176985 -0.024768775329 0.70684790611
          -1 0 0 -1 0 0
          -0.70705258846 -0.17114089429 0.68613952398 -1 0 0
          -1 0 0 -0.70693492889 -0.31011936069 0.63566416502
          -1 0 0 -1 0 0
          -1 0 0 -0.70700728893 -0.43544977903 0.55724698305
          -1 0 0 -1 0 0
          -1 0 0 -0.70699888468 -0.54180175066 0.45453646779
          -1 0 0 -1 0 0
          -1 0 0 -1 0 0
          -0.70693171024 -0.62452989817 0.33197882771 -1 0 0
          -1 0 0 -0.70705246925 -0.67978608608 0.1948531121
          -0.70693391562 -0.70556282997 0.049250379205 -0.70700794458 -0.70031237602 -0.098500519991
          -0.70699894428 -0.66453558207 -0.24196051061 -0.70693081617 -0.59975939989 -0.37488332391
          -1 0 0 -1 0 0
          -0.70705199242 -0.50863069296 -0.49129652977 -1 0 0
          -1 0 0 -1 0 0
          -0.70693391562 -0.39542266726 -0.586417377 -1 0 0
          -1 0 0 -0.70700758696 -0.26484394073 -0.65574234724
          -0.70676076412 0.70687317848 -0.028628475964 -0.70671516657 0.69322216511 0.14140947163
          -0.70672792196 0.67952603102 -0.19692656398 -0.70674699545 0.61261469126 -0.35385301709
          -0.7067373395 0.51016372442 -0.49015840888 -0.70672786236 0.37801110744 -0.59803289175
          -0.7067438364 0.2239292115 -0.67109525204 -0.7067117691 0.05679846555 -0.7052179575
          -0.70675182343 -0.11360436678 -0.6982806921 -0.70670258999 -0.2774361372 -0.6508461237
          -0.70675939322 -0.42510384321 -0.56548905373 -0.70670372248 -0.54811525345 -0.4473695159
          -0.70676285028 -0.63920855522 -0.30314794183 -0.70671516657 -0.69322216511 -0.14140947163
          -0.70676076412 -0.70687317848 0.028628475964 -0.70672792196 -0.67952603102 0.19692656398
          -0.70674699545 -0.61261469126 0.35385301709 -0.7067373395 -0.51016372442 0.49015840888
          -0.70672786236 -0.37801110744 0.59803289175 -0.7067438364 -0.2239292115 0.67109525204
          -0.7067117691 -0.05679846555 0.7052179575 -0.70675182343 0.11360436678 0.6982806921
          -0.70670258999 0.2774361372 0.6508461237 -0.70675939322 0.42510384321 0.56548905373
          -0.70670372248 0.54811525345 0.4473695159 -0.70676285028 0.63920855522 0.30314794183
          1 0 0 1 0 0
          1 0 0 1 0 0
          1 0 0 1 0 0
          1 0 0 1 0 0
          1 0 0 1 0 0
          1 0 0 1 0 0
          1 0 0 1 0 0
          1 0 0 1 0 0
          1 0 0 1 0 0
          1 0 0 1 0 0
          1 0 0 1 0 0
          1 0 0 1 0 0
          1 0 0 1 0 0
          1 0 0 1 0 0
          1 0 0 1 0 0
          1 0 0 1 0 0
          1 0 0 1 0 0
          1 0 0 1 0 0
          1 0 0 1 0 0
          1 0 0 1 0 0
          1 0 0 1 0 0
          1 0 0 1 0 0
          1 0 0 1 0 0
          1 0 0 1 0 0
          1 0 0 1 0 0
          1 0 0 1 0 0
          1 0 0 1 0 0
          1 0 0 1 0 0
          1 0 0 1 0 0
          0 0.037548657507 -0.99929481745 3.3088603826e-018 -0.18579110503 -0.98258924484
          0 0.25893738866 -0.96589410305 0 0.46740806103 -0.88404166698
          0 0.65238034725 -0.75789171457 0 0.8046913743 -0.59369337559
          0 0.91661113501 -0.39977991581 1.5148853389e-016 0.98259574175 -0.18575677276
          -2.7946975283e-018 0.99929612875 0.037513624877 0 0.96588498354 0.25897151232
          0 0.88405805826 0.46737706661 0 0.75786888599 0.65240687132
          0 0.59372162819 0.80467051268 0 0.39974758029 0.91662526131
          0 0.18579110503 0.98258924484 3.3088947106e-018 -0.037548657507 0.99929481745
          0 -0.25893738866 0.96589410305 0 -0.46740806103 0.88404166698
          0 -0.65238034725 0.75789171457 0 -0.8046913743 0.59369337559
          0 -0.91661113501 0.39977991581 1.1239472083e-016 -0.98259574175 0.18575677276
          -4.5605953736e-018 -0.99929612875 -0.037513624877 0 -0.96588498354 -0.25897151232
          0 -0.88405805826 -0.46737706661 0 -0.75786888599 -0.65240687132
          0 -0.59372162819 -0.80467051268 0 -0.39974758029 -0.91662526131
          -1.0594466175e-006 0.23550769687 -0.97187250853 -4.5038930807e-007 0.32732751966 -0.94491094351
          -2.2821642176e-007 0.047906693071 -0.99885183573 -1 0 0
          -2.282431808e-007 -0.047902662307 -0.99885201454 -1.0596344282e-006 -0.2355324477 -0.97186648846
          -1 0 0 -1 0 0
          5.5414648159e-007 0.49972942472 -0.86618155241 -4.3635544955e-008 0.58029007912 -0.81440985203
          -1.9561691715e-006 0.72352397442 -0.69029927254 -8.5210797351e-007 0.78623062372 -0.61793315411
          -1 0 0 2.2125344401e-007 0.88871276379 -0.45846438408
          -7.6589799392e-007 0.92848163843 -0.37137836218 -1.5913797142e-006 0.98187029362 -0.18955387175
          -1.8078732467e-007 0.99549692869 -0.094793953001 -1 0 0
          -1.7959085596e-007 0.99550014734 0.094759911299 -1.5893676846e-006 0.98187029362 0.18955388665
          -1 0 0 -7.6258652371e-007 0.9284607172 0.37143066525
          2.234844203e-007 0.88869708776 0.45849478245 -1 0 0
          -8.5065732947e-007 0.7862547636 0.61790245771 -1.9561109639e-006 0.72356283665 0.69025850296
          -4.3716678277e-008 0.5802693367 0.81442463398 5.538769301e-007 0.49969565868 0.86620104313
          -1 0 0 -4.5062412823e-007 0.32733136415 0.94490963221
          -1.0596344282e-006 0.2355324477 0.97186648846 -2.282431808e-007 0.047902662307 0.99885201454
          -2.2821642176e-007 -0.047906693071 0.99885183573 -1 0 0
          -1.0594466175e-006 -0.23550769687 0.97187250853 -4.5038930807e-007 -0.32732751966 0.94491094351
          -1 0 0 -1 0 0
          1 0 0 1 0 0
          1 0 0 1 0 0
          1 0 0 1 0 0
          1 0 0 1 0 0
          -4.5062415666e-007 -0.32733136415 -0.94490963221 1 0 0
          5.5414648159e-007 -0.49972942472 0.86618155241 -4.3635544955e-008 -0.58029007912 0.81440985203
          -1.9561691715e-006 -0.72352397442 0.69029927254 -8.5210797351e-007 -0.78623062372 0.61793315411
          -1 0 0 2.2125344401e-007 -0.88871276379 0.45846438408
          -7.6589799392e-007 -0.92848163843 0.37137836218 -1.5913797142e-006 -0.98187029362 0.18955387175
          -1.8078732467e-007 -0.99549692869 0.094793953001 -1 0 0
          -1.7959085596e-007 -0.99550014734 -0.094759911299 -1.5893676846e-006 -0.98187029362 -0.18955388665
          -1 0 0 -7.6258652371e-007 -0.9284607172 -0.37143066525
          2.234844203e-007 -0.88869708776 -0.45849478245 -1 0 0
          -8.5065732947e-007 -0.7862547636 -0.61790245771 -1.9561109639e-006 -0.72356283665 -0.69025850296
          -4.3716678277e-008 -0.5802693367 -0.81442463398 5.538769301e-007 -0.49969565868 -0.86620104313
          -1 0 0 1 0 0
          1 0 0 1 0 0
          1 0 0 1 0 0
          -1 0 0 -1 0 0
          -1 0 0 -1 0 0
          -1 0 0 -1 0 0
          -1 0 0 -1 0 0
          -1 0 0 -1 0 0
          -1 0 0 -1 0 0
          -1 0 0 -1 0 0
          -1 0 0 -1 0 0
          -1 0 0 -1 0 0
          -1 0 0 -1 0 0
          -1 0 0 -1 0 0
          0 0.80467033386 -0.593721807 -1 0 0
          -1 0 0 0 0.91662240028 -0.3997541666
          -1 0 0 -3.4651309303e-018 0.98258811235 -0.18579725921
          0 0.99929481745 0.037547916174 0 0.96589022875 0.25895178318
          0 0.88404601812 0.46739983559 0 0.75787454844 0.65240031481
          0 -0.80467033386 0.593721807 -1 0 0
          -1 0 0 0 -0.91662240028 0.3997541666
          -1 0 0 3.4651236925e-018 -0.98258811235 0.18579725921
          0 -0.99929481745 -0.037547916174 0 -0.96589022875 -0.25895178318
          0 -0.88404601812 -0.46739983559 0 -0.75787454844 -0.65240031481
          -1 0 0 -1 0 0
          -1 0 0 -1 0 0
          -1 0 0 -1 0 0
          -1 0 0 -1 0 0
          -1 0 0 -1 0 0
          0.99855792522 -0.053306497633 -0.0063666063361 0.9978222847 0.065522782505 -0.0075824479572
          0.99776792526 0.066735133529 0.0023718592711 0.9657433033 0.25944373012 0.0053649148904
          0.99776792526 -0.066735133529 -0.0023718592711 0.99855792522 0.053306497633 0.0063666063361
          0.9703489542 0.23593057692 0.052532799542 0.99779820442 -0.063977785408 -0.017482573166
          0.99862158298 0.050953887403 -0.012596058659 0.97034859657 0.23733432591 -0.045782186091
          0.99860167503 -0.049456130713 -0.018674951047 0.99781280756 0.062197525054 -0.022385505959
          0.99781614542 -0.058045633137 -0.031523048878 0.99859267473 0.046921554953 -0.024719826877
          0.97035121918 0.22212529182 -0.09528337419 0.9986256361 -0.043144356459 -0.029756350443
          0.99779182673 0.055684320629 -0.036203283817 0.99782329798 -0.049233619124 -0.043871361762
          0.99782329798 0.049233634025 -0.043871350586 0.96570557356 0.21348136663 -0.14777845144
          0.99777704477 -0.042517397553 -0.051314592361 0.99862998724 0.034687597305 -0.03917754814
          0.97034358978 0.16578100622 -0.17592608929 0.99857127666 -0.030424531549 -0.043929249048
          0.99782085419 0.037932984531 -0.053987730294 0.99780386686 -0.029450206086 -0.05933021754
          0.99861603975 0.024386927485 -0.046597115695 0.97034984827 0.12450641394 -0.2071699053
          0.99860972166 -0.018742809072 -0.049267970026 0.99780845642 0.024673795328 -0.061395950615
          0.99781876802 -0.015066278167 -0.064270928502 0.99858230352 0.012646794319 -0.051705803722
          0.97035104036 0.0775160864 -0.22893244028 0.99862843752 -0.0063213044778 -0.05197430402
          0.99680882692 0.012017906643 -0.078915700316 0.99510145187 -5.9003493647e-008 -0.098858945072
          0.96571654081 0.032836586237 -0.25751376152 0.97034531832 -0.020104840398 -0.24088542163
          0.97035050392 -0.070932805538 -0.23105946183 0.97035074234 -0.11853192747 -0.210641101
          0.96572881937 -0.16950678825 -0.19655855 0.97034716606 -0.19264562428 -0.14599312842
          0.97035104036 -0.2193082422 -0.10160106421 0.9703489542 -0.23593057692 -0.052532799542
          0.9978222847 -0.065522782505 0.0075824479572 0.9657433033 -0.25944373012 -0.0053649144247
          0.99779820442 0.063977785408 0.017482573166 0.99862158298 -0.050953887403 0.012596058659
          0.97034859657 -0.23733432591 0.045782186091 0.99860167503 0.049456130713 0.018674951047
          0.99781280756 -0.062197525054 0.022385505959 0.99781614542 0.058045633137 0.031523048878
          0.99859267473 -0.046921554953 0.024719826877 0.97035121918 -0.22212529182 0.09528337419
          0.9986256361 0.043144356459 0.029756350443 0.99779182673 -0.055684320629 0.036203283817
          0.99782329798 0.049233619124 0.043871361762 0.99782329798 -0.049233634025 0.043871350586
          0.96570557356 -0.21348136663 0.14777845144 0.99777704477 0.042517397553 0.051314592361
          0.99862998724 -0.034687597305 0.03917754814 0.97034358978 -0.16578100622 0.17592608929
          0.99857127666 0.030424531549 0.043929249048 0.99782085419 -0.037932984531 0.053987730294
          0.99780386686 0.029450206086 0.05933021754 0.99861603975 -0.024386927485 0.046597115695
          0.97034984827 -0.12450641394 0.2071699053 0.99860972166 0.018742809072 0.049267970026
          0.99780845642 -0.024673795328 0.061395950615 0.99781876802 0.015066278167 0.064270928502
          0.99858230352 -0.012646794319 0.051705803722 0.97035104036 -0.0775160864 0.22893244028
          0.99862843752 0.0063213044778 0.05197430402 0.99680882692 -0.012017906643 0.078915700316
          0.99510145187 5.9003493647e-008 0.098858945072 0.96571654081 -0.032836586237 0.25751376152
          0.97034531832 0.020104840398 0.24088542163 0.97035050392 0.070932805538 0.23105946183
          0.97035074234 0.11853192747 0.210641101 0.96572881937 0.16950678825 0.19655855
          0.97034716606 0.19264562428 0.14599312842 0.97035104036 0.2193082422 0.10160106421
          0.045988772064 -0.17702622712 -0.98313111067 0.05656452477 -0.090153090656 -0.994320333
          0.043907340616 -0.0010294986423 -0.99903506041 0.16155824065 -0.0078954054043 -0.98683160543
          0.059630502015 0.008234700188 -0.99818652868 0.03305201605 0.098016373813 -0.99463576078
          0.17549020052 0.16094221175 -0.97123670578 0.048884995282 -0.19079340994 -0.9804122448
          0.19305123389 -0.16385820508 -0.96740978956 0.048172462732 -0.29569283128 -0.95406770706
          0.06035676226 -0.38321271539 -0.92168599367 0.04778251797 -0.42509523034 -0.90388655663
          0.19113864005 -0.35232126713 -0.91615265608 0.052832722664 -0.54624396563 -0.83595824242
          0.049686789513 -0.50831490755 -0.85973668098 0.17599256337 -0.50448304415 -0.84529489279
          0.048286978155 -0.6062734127 -0.79378896952 0.061641097069 -0.70413255692 -0.70738792419
          0.049830317497 -0.7151915431 -0.69714993238 0.19168822467 -0.64348584414 -0.74106782675
          0.054654400796 -0.82010442019 -0.56959784031 0.050949450582 -0.77401041985 -0.63111966848
          0.17583394051 -0.7636013031 -0.62128531933 0.047438886017 -0.83786636591 -0.54381018877
          0.055834826082 -0.91588181257 -0.39754617214 0.049633562565 -0.88121807575 -0.47009706497
          0.17596493661 -0.86245524883 -0.47456005216 0.046711504459 -0.92649233341 -0.37340331078
          0.05726819858 -0.97613877058 -0.20946002007 0.046714615077 -0.95606064796 -0.28942319751
          0.17603500187 -0.93252766132 -0.31528380513 0.045501090586 -0.98086667061 -0.1892888695
          0.058900944889 -0.99817609787 -0.01323394943 0.057163260877 -0.99378228188 -0.095546633005
          0.21847455204 -0.9571339488 -0.19016692042 0.041136223823 -0.99895948172 0.019692348316
          0.19070848823 -0.98135173321 -0.024062216282 0.045190796256 -0.98565334082 0.1626201272
          0.057186055928 -0.99376761913 0.095685400069 0.26003193855 -0.96560001373 -5.8119945606e-005
          0.24318648875 -0.94659900665 0.21168531477 0.26175117493 -0.94447988272 -0.19860519469
          0.26321575046 -0.88306081295 -0.38848561049 0.2644290328 -0.78399533033 -0.56163030863
          0.265394032 -0.65152806044 -0.71068781614 0.26611292362 -0.49131557345 -0.82933282852
          0.26658776402 -0.3101862967 -0.91253244877 0.26682016253 -0.11585302651 -0.95675760508
          0.05149820447 0.20193615556 -0.97804385424 0.2668107152 0.083414360881 -0.96013230085
          0.047535002232 0.35318413377 -0.93434542418 0.060260247439 0.39263087511 -0.917719841
          0.2665592134 0.27913630009 -0.92251241207 0.059776648879 0.22223456204 -0.97315907478
          0.038865085691 0.47430112958 -0.87950438261 0.052763655782 0.5637512207 -0.82425761223
          0.26606526971 0.46298366785 -0.84549123049 0.046278048307 0.6611738205 -0.7488040328
          0.061964903027 0.71050596237 -0.70095765591 0.26532757282 0.62712740898 -0.73233360052
          0.056151654571 0.57039535046 -0.81944864988 0.038592752069 0.7529476881 -0.65694779158
          0.054369721562 0.83524501324 -0.54718339443 0.26434391737 0.76457077265 -0.58783829212
          0.045788232237 0.88888263702 -0.45584112406 0.055765330791 0.9275906086 -0.36941292882
          0.263112396 0.86944496632 -0.4181355238 0.059133730829 0.82728654146 -0.55865931511
          0.046444367617 0.95873230696 -0.28049111366 0.039404738694 0.98416167498 -0.17283819616
          0.24318648875 0.94659900665 -0.21168529987 0.047278020531 0.92620462179 -0.374045223
          0.035265155137 0.99936294556 -0.0054815248586 0.058901146054 0.99817544222 0.013281553052
          0.071716666222 0.99526882172 -0.06554890424 0.048651531339 0.98047918081 -0.19050864875
          0.042444337159 0.99429273605 0.097879432142 0.045544426888 0.98082113266 0.18951420486
          0.05726916343 0.97610712051 0.20960719883 0.26003193855 0.96560001373 5.8121204347e-005
          0.12108642608 0.99163579941 0.044682752341 0.2088034749 0.96223121881 0.17467746139
          0.19192504883 0.96904492378 -0.15529558063 0.22108006477 0.97448307276 0.038810998201
          0.20469300449 0.92589014769 -0.31753462553 0.19170971215 0.85580563545 -0.4804623723
          0.17821103334 0.75584113598 -0.63003575802 0.1918733716 0.63579827547 -0.74762636423