<VTKFile type="PolyData" version="0.1" byte_order="LittleEndian" header_type="UInt64">
  <PolyData>
    <Piece NumberOfPoints="326" NumberOfVerts="0" NumberOfLines="0" NumberOfStrips="0" NumberOfPolys="392">
      <PointData Normals="Normals">
        <DataArray type="Float32" Name="Normals" NumberOfComponents="3" format="ascii" RangeMin="0.999999962" RangeMax="1.0000000334">
          0 1 0 0 1 0
          0 1 0 0.99621129036 0 -0.086966104805
          0 1 0 0 1 0
          0.90705871582 -4.0392533265e-006 -0.42100408673 0 1 0
          0 1 0 0 1 0
          0 1 0 0 1 0
          0.98476332426 -3.7866009279e-006 0.1738999635 0 1 0
          0 1 0 0 1 0
          0 1 0 0.81809228659 -4.2023107198e-006 0.57508695126
          0 1 0 0.42100408673 -4.0392533265e-006 0.90705871582
          0.052067607641 0 0.9986435771 0 1 0
          0 1 0 -1 0 0
          0 1 0 0 1 0
          0 1 0 0 1 0
          0 1 0 0 1 0
          0 0 -1 0 1 0
          -1 0 0 -1 0 0
          -1 0 0 0 1 0
          0.1738999635 -3.7866009279e-006 -0.98476332426 0 0 -1
          0 1 0 0.57508695126 -4.2023107198e-006 -0.81809228659
          -0.017144577578 0.74189126492 -0.67030102015 0.21118873358 0.74333029985 -0.63471204042
          -0.41353297234 0.74497318268 -0.52345526218 -0.19379469752 0.79314547777 -0.57737672329
          -0.56515210867 0.74692201614 -0.35030066967 -0.62768250704 0.7681684494 -0.1262216717
          -0.65515834093 0.74666488171 0.11514808238 -0.5763528347 0.74708282948 0.33118665218
          -0.41149958968 0.76700133085 0.49231806397 -0.21118874848 0.74333029985 0.63471204042
          0.017144575715 0.74189126492 0.67030102015 0.41353300214 0.74497318268 0.52345526218
          0.19379469752 0.79314547777 0.57737672329 0.56515210867 0.74692201614 0.35030066967
          0.62768250704 0.7681684494 0.1262216717 0.65515834093 0.74666488171 -0.11514808983
          0.5763528347 0.74708282948 -0.33118665218 0.41149961948 0.76700127125 -0.49231809378
          -0.13056029379 0.99144035578 0 0 0 -1
          -0.13056029379 0.99144035578 0 0 0 -1
          -0.13056029379 0.99144035578 0 -1 0 0
          -0.086956769228 -0.99621206522 0 -0.086956769228 -0.99621206522 0
          0 0 1 0 0 1
          0 0 1 0 0 1
          -0.5750182271 -0.81814056635 0 0 0 1
          -0.96594440937 -0.25874966383 0 -0.9960372448 0.088936895132 0
          -0.70702904463 0.70718449354 0 -0.42098402977 0.90706807375 0
          0 0 -1 0 0 -1
          0 0 -1 0 0 -1
          -0.57501834631 0.81814050674 0 0 0 -1
          -0.96594440937 0.25874966383 0 -0.9960372448 -0.088936895132 0
          -0.70702856779 -0.70718497038 0 -0.4209843576 -0.90706789494 0
          -0.014853452332 0.96847343445 -0.24867354333 0.067547015846 0.95546424389 -0.2872723937
          -0.14701960981 0.95579338074 -0.254645437 -0.050487436354 0.98018652201 -0.19153425097
          -0.17937852442 0.96921908855 -0.16863468289 -0.22278432548 0.96847343445 -0.11147330701
          -0.36518377066 0.93093544245 0 -0.19111724198 0.98018652201 -0.052043747157
          -0.23573118448 0.96921908855 0.071029022336 -0.207930848 0.96847349405 0.13720023632
          -0.12265537679 0.96944451332 0.2124453634 -0.17605808377 0.96876585484 0.17463175952
          -0.067547030747 0.95546424389 0.28727242351 0.014853452332 0.96847343445 0.24867354333
          0 1 0 0 1 0
          0 1 0 0 1 0
          0 1 0 0 1 0
          0 1 0 0 1 0
          0.050487436354 0.98018652201 0.19153425097 0.0055410256609 0.69699078798 -0.7170587182
          0.35854423046 0.68471777439 -0.63451367617 -0.37509274483 0.67241489887 -0.63809370995
          -0.6568467021 0.6752333045 -0.33557769656 -0.73987293243 0.67217254639 0.027786096558
          -0.62947529554 0.67561125755 0.38381016254 -0.35854423046 0.68471777439 0.63451367617
          0 1 0 -0.0055410279892 0.69699078798 0.7170587182
          0.17937850952 0.96921908855 0.16863468289 0 1 0
          0.37509271502 0.67241495848 0.63809370995 0.14701962471 0.95579338074 0.254645437
          0.22278434038 0.96847343445 0.11147332191 0 1 0
          0.6568467021 0.6752333045 0.33557769656 0.2079308629 0.96847343445 -0.13720023632
          0 1 0 0.73987293243 0.67217254639 -0.027786096558
          0.23573118448 0.96921908855 -0.071029014885 0.19111724198 0.98018652201 0.052043747157
          0.12265539169 0.96944451332 -0.2124453634 0.62947529554 0.67561125755 -0.38381016254
          0.17605808377 0.96876585484 -0.17463175952 0.36518377066 0.93093544245 0
          -0.35981017351 0.4323092103 0.82682853937 -0.0049057025462 0.38211864233 0.9241002202
          0.0049057025462 0.38211864233 -0.9241002202 0.35981017351 0.4323092103 -0.82682853937
          -0.59488028288 0.61225605011 -0.52082622051 -0.37079900503 0.324357301 -0.8702300787
          -0.76488333941 0.61634808779 -0.18726597726 -0.7648832798 0.61634814739 0.18726591766
          -0.59488046169 0.61225581169 0.52082633972 -0.48265954852 0.028892515227 -0.87533134222
          -0.51343792677 0.045068081468 -0.85694241524 -0.0059069623239 0.042378269136 -0.99908417463
          -0.088305450976 0.20764526725 -0.9742102623 0.0071265520528 0.013786601834 -0.99987953901
          0.48153480887 0.010178646073 -0.87636786699 0.23696902394 0.1831215024 -0.9541028142
          -0.84878891706 0.036981936544 -0.52743697166 -0.8852981925 -0.1164117828 -0.4502171278
          -0.65599751472 0.1913395822 -0.73010712862 -0.56592720747 0.41967022419 -0.70965009928
          -0.99820560217 0.039500840008 -0.045002266765 -0.99007517099 -0.13015726209 0.053011190146
          -0.95946496725 -0.11546772718 -0.25708782673 -0.89273834229 0.036940339953 0.44905868173
          -0.8322275877 -0.11640834063 0.54207599163 -0.95946490765 -0.11546817422 0.25708800554
          -0.51366621256 0.04547861591 0.85678392649 -0.48153483868 0.010178646073 0.87636786699
          -0.65599757433 0.19133979082 0.73010700941 -0.0071265520528 0.013786602765 0.99987953901
          0.0059069679119 0.042378272861 0.99908417463 -0.23696902394 0.1831215024 0.9541028142
          0.48265954852 0.028892518952 0.87533134222 0.51343792677 0.045068081468 0.85694241524
          0.088305450976 0.20764526725 0.9742102623 0.37079900503 0.324357301 0.8702300787
          0.51366621256 0.04547862336 -0.85678392649 0.10722569376 0.98062771559 0.163926512
          0.10600779206 0.97395253181 -0.20044654608 -0.013158828951 0.97970324755 -0.20002095401
          0.013158828951 0.97970324755 0.20002095401 -0.10722569376 0.98062771559 -0.163926512
          0.17350140214 0.98043090105 0.093018822372 0.2082401216 0.97168505192 -0.1116431579
          0.47061052918 0.82255721092 -0.31925755739 0.29606229067 0.95516860485 1.7161973176e-008
          0.62779420614 0.76464802027 -0.1455604285 0.62779408693 0.76464807987 0.1455603987
          0.47061035037 0.82255733013 0.31925746799 0.16504795849 0.90879917145 0.3832013011
          -0.10600779206 0.97395253181 0.20044654608 -0.17350140214 0.98043090105 -0.093018822372
          -0.2082401216 0.97168505192 0.1116431579 -0.29606229067 0.95516860485 -1.7161973176e-008
          0.59488028288 0.61225605011 0.52082622051 0.76488333941 0.61634808779 0.18726597726
          0.7648832798 0.61634814739 -0.18726591766 0.59488046169 0.61225581169 -0.52082633972
          0.84878891706 0.036981936544 0.52743697166 0.8852981925 -0.1164117828 0.4502171278
          0.99820560217 0.039500840008 0.045002266765 0.99007517099 -0.13015726209 -0.053011190146
          0.89273834229 0.036940339953 -0.44905868173 0.8322275877 -0.11640834063 -0.54207599163
          0.77330058813 0.55453252792 0.30740833282 0.99621409178 0 0.086933858693
          0.98476332426 -3.7872116536e-006 -0.1738999635 0 -1 0
          0.35023391247 0.5602991581 -0.75060045719 0.818110466 -4.2029842007e-006 -0.57506114244
          0 -1 0 0.83266425133 0.55377817154 0
          0.77330058813 0.55453252792 -0.30740833282 0.60410487652 0.55675309896 -0.57016068697
          -0.049004726112 0.56493794918 0.82367688417 0.90705871582 -4.0386285036e-006 0.42100408673
          0 -1 0 0.29951500893 0.56264185905 0.77053546906
          0.60410487652 0.55675309896 0.57016068697 0 0 1
          -1 0 0 0.57506114244 -4.2029842007e-006 0.818110466
          0 -1 0 0.1738999635 -3.7872116536e-006 0.98476332426
          0 -1 0 0 -1 0
          -0.77330058813 0.55453252792 -0.30740833282 -1 0 0
          0 0 -1 0 0 1
          0 1 0 -0.83266425133 0.55377817154 0
          -0.77330058813 0.55453252792 0.30740833282 -0.60410487652 0.55675309896 0.57016068697
          -0.35023391247 0.5602991581 0.75060045719 -0.29951500893 0.56264185905 -0.77053546906
          0.065122202039 0 -0.99787729979 -1 0 0
          0 1 0 -0.60410487652 0.55675309896 -0.57016068697
          0 1 0 0 0 1
          0 1 0 0 0 -1
          0 0 -1 0 -1 0
          0.42100408673 -4.0386285036e-006 -0.90705871582 0 -1 0
          -0.17391353846 -0.98476094007 0 0.049004726112 0.56493794918 -0.82367688417
          0 -1 0 0 0 1
          -0.13056029379 0.99144035578 0 0 0 1
          -0.17391353846 -0.98476094007 0 0 0 -1
          0 -1 0 0 0 1
          0 0 1 0 0 1
          -0.57501834631 0.81814050674 0 -0.4209843576 -0.90706789494 0
          -0.96594440937 0.25874966383 0 -0.70702904463 0.70718449354 0
          -0.70702856779 -0.70718497038 0 -0.96594440937 -0.25874966383 0
          0 0 -1 -0.9960372448 -0.088936895132 0
          -0.70702856779 -0.70718497038 0 0 0 -1
          0 0 -1 -0.96594440937 0.25874966383 0
          0 0 -1 0 0 -1
          -0.5750182271 -0.81814056635 0 -0.42098402977 0.90706807375 0
          -0.96594440937 -0.25874966383 0 -0.70702856779 -0.70718497038 0
          -0.70702904463 0.70718449354 0 -0.96594440937 0.25874966383 0
          0 0 1 -0.9960372448 0.088936895132 0
          -0.70702904463 0.70718449354 0 0 0 1
          0 0 1 -0.96594440937 -0.25874966383 0
          0 0 1 0 0 1
          0.054050385952 0.79426848888 -0.60515797138 0.3493873477 0.79426896572 -0.49705666304
          -0.25576922297 0.79426896572 -0.55110704899 -0.49705594778 0.79426920414 -0.34938773513
          -0.60515731573 0.79426890612 -0.054050501436 -0.55110687017 0.79426896572 0.2557695806
          -0.3493873477 0.79426896572 0.49705666304 -0.054050385952 0.79426848888 0.60515797138
          0.25576922297 0.79426896572 0.55110704899 0.49705594778 0.79426920414 0.34938773513
          0.60515731573 0.79426890612 0.054050501436 0.55110687017 0.79426896572 -0.2557695806
          -0.75427943468 0.10338524729 -0.64836251736 -0.96829032898 0.088794082403 -0.23351550102
          -0.96829032898 0.088793978095 0.23351538181 -0.75427949429 0.10338547081 0.64836245775
          0.031813878566 0.91953831911 -0.39171048999 0.19323840737 0.91014558077 -0.36646133661
          0.56592702866 0.41967090964 -0.70964986086 -0.78404867649 0.49264842272 -0.3775780499
          -0.47061038017 0.82255733013 -0.31925746799 -0.22224068642 0.050168804824 -0.97370022535
          -0.16504795849 0.90879917145 -0.3832013309 -0.85720419884 0.51497668028 0
          -0.62779408693 0.76464813948 -0.1455604136 -0.78404903412 0.49264773726 0.37757819891
          -0.62779420614 0.76464802027 0.1455604285 -0.47061049938 0.82255721092 0.31925755739
          -0.56592702866 0.41967090964 0.70964986086 -0.19323840737 0.91014558077 0.36646133661
          -0.031813878566 0.91953831911 0.39171048999 0.65599757433 0.19133979082 -0.73010700941
          0.95946490765 -0.11546817422 -0.25708800554 0.95946496725 -0.11546772718 0.25708782673
          0.65599751472 0.1913395822 0.73010712862 0.22224068642 0.050168804824 0.97370022535
          0.56592720747 0.41967022419 0.70965009928 0.75427943468 0.10338524729 0.64836251736
          0.96829032898 0.088794082403 0.23351550102 0.96829032898 0.088793978095 -0.23351538181
          0.75427949429 0.10338547081 -0.64836245775 0.78404867649 0.49264842272 0.3775780499
          0.85720419884 0.51497668028 0 0.78404903412 0.49264773726 -0.37757819891
        </DataArray>
      </PointData>
      <CellData>
      </CellData>
      <Points>
        <DataArray type="Float32" Name="Points" NumberOfComponents="3" format="ascii" RangeMin="0.0093079261148" RangeMax="0.080482773706">
          0.018477139995 -0.013150000013 0.0076544685289 0.026000000536 -0.013150000013 0.017999999225
          0.026000000536 -0.013150000013 -0.017999999225 0.026000000536 -0.049100000411 -0.017999999225
          0.0076544685289 -0.013150000013 -0.018477139995 0.024928202853 -0.013150000013 -0.021999999881
          0.024927638471 -0.049100000411 -0.022000540048 0.019999999553 -0.013150000013 -1.0414004562e-017
          0.018477139995 -0.013150000013 -0.0076544685289 0.014141998254 -0.013150000013 -0.014141998254
          -4.4408919992e-018 -0.013150000013 0.019999999553 0.024928202853 -0.013150000013 0.021999999881
          0.026000000536 -0.049100000411 0.017999999225 0.0076544685289 -0.013150000013 0.018477139995
          0.014141998254 -0.013150000013 0.014141998254 -0.026000000536 -0.013150000013 0.026000000536
          0.021999999881 -0.013150000013 0.024928202853 0.024927638471 -0.049100000411 0.022000540048
          0.017999999225 -0.013150000013 0.026000000536 0.022000540048 -0.049100000411 0.024927638471
          0.017999999225 -0.049100000411 0.026000000536 -0.018477139995 -0.013150000013 -0.0076544685289
          -0.026000000536 -0.013150000013 -0.026000000536 -0.026000000536 -0.034099999815 0.026000000536
          -0.019999999553 -0.013150000013 -1.2246467905e-018 -0.018477139995 -0.013150000013 0.0076544685289
          -0.014141998254 -0.013150000013 0.014141998254 -0.0076544685289 -0.013150000013 0.018477139995
          -0.0076544685289 -0.013150000013 -0.018477139995 0.017999999225 -0.013150000013 -0.026000000536
          -0.026000000536 -0.034099999815 -0.026000000536 -0.014141998254 -0.013150000013 -0.014141998254
          -0.026000000536 -0.034099999815 -0.01600000076 -0.026000000536 -0.034099999815 0.01600000076
          -0.026000000536 -0.049100000411 0.01600000076 0.021999999881 -0.013150000013 -0.024928202853
          0.017999999225 -0.049100000411 -0.026000000536 -0.054699998349 -0.049100000411 -0.026000000536
          0 -0.013150000013 -0.019999999553 0.022000540048 -0.049100000411 -0.024927638471
          0 -0.0086227469146 -0.016851076856 0.005763407331 -0.0086227469146 -0.015834832564
          -0.010831663385 -0.0086227469146 -0.012908673845 -0.005763407331 -0.0086227469146 -0.015834832564
          -0.014593460597 -0.0086227469146 -0.0084255384281 -0.016595071182 -0.0086227469146 -0.0029261587188
          -0.016595071182 -0.0086227469146 0.0029261587188 -0.014593460597 -0.0086227469146 0.0084255384281
          -0.010831663385 -0.0086227469146 0.012908673845 -0.005763407331 -0.0086227469146 0.015834832564
          -5.4197196335e-018 -0.0086227469146 0.016851076856 0.010831663385 -0.0086227469146 0.012908673845
          0.005763407331 -0.0086227469146 0.015834832564 0.014593460597 -0.0086227469146 0.0084255384281
          0.016595071182 -0.0086227469146 0.0029261587188 0.016595071182 -0.0086227469146 -0.0029261587188
          0.014593460597 -0.0086227469146 -0.0084255384281 0.010831663385 -0.0086227469146 -0.012908673845
          -0.054699998349 -0.034099999815 -0.01600000076 -0.054699998349 -0.034099999815 -0.026000000536
          -0.054699998349 -0.034099999815 0.026000000536 -0.054699998349 -0.049100000411 0.01600000076
          -0.054699998349 -0.034099999815 0.01600000076 -0.026000000536 -0.049100000411 -0.01600000076
          -0.054699998349 -0.049100000411 0.026000000536 -0.054699998349 -0.049100000411 -0.01600000076
          -0.05844964087 -0.035104990005 0.026000000536 -0.05844964087 -0.048095006496 0.026000000536
          -0.061195101589 -0.037849847227 0.026000000536 -0.061195101589 -0.045350152999 0.026000000536
          -0.05844964087 -0.048095006496 0.01600000076 -0.062199663371 -0.041600000113 0.026000000536
          -0.061195101589 -0.045350152999 0.01600000076 -0.062199663371 -0.041600000113 0.01600000076
          -0.061195101589 -0.037849847227 0.01600000076 -0.05844964087 -0.035104990005 0.01600000076
          -0.05844964087 -0.048095006496 -0.026000000536 -0.05844964087 -0.035104990005 -0.026000000536
          -0.061195101589 -0.045350152999 -0.026000000536 -0.061195101589 -0.037849847227 -0.026000000536
          -0.05844964087 -0.035104990005 -0.01600000076 -0.062199663371 -0.041600000113 -0.026000000536
          -0.061195101589 -0.037849847227 -0.01600000076 -0.062199663371 -0.041600000113 -0.01600000076
          -0.061195101589 -0.045350152999 -0.01600000076 -0.05844964087 -0.048095006496 -0.01600000076
          0 -0.0060000000522 -0.012000000104 0.0031057612505 -0.0060000000522 -0.011590858921
          -0.0060000000522 -0.0060000000522 -0.01039230451 -0.0031057612505 -0.0060000000522 -0.011590858921
          -0.0084850974381 -0.0060000000522 -0.0084850974381 -0.01039230451 -0.0060000000522 -0.0060000000522
          -0.012000000104 -0.0060000000522 -7.3478805365e-019 -0.011590858921 -0.0060000000522 -0.0031057612505
          -0.011590858921 -0.0060000000522 0.0031057612505 -0.01039230451 -0.0060000000522 0.0060000000522
          -0.0060000000522 -0.0060000000522 0.01039230451 -0.0084850974381 -0.0060000000522 0.0084850974381
          -0.0031057612505 -0.0060000000522 0.011590858921 1.9721523567e-034 -0.0060000000522 0.012000000104
          0 -0.0060000000522 -0.011374999769 0.0056874998845 -0.0060000000522 -0.0098510393873
          -0.0056874998845 -0.0060000000522 -0.0098510393873 -0.0098510393873 -0.0060000000522 -0.0056874998845
          -0.011374999769 -0.0060000000522 -6.9651787052e-019 -0.0098510393873 -0.0060000000522 0.0056874998845
          -0.0056874998845 -0.0060000000522 0.0098510393873 0 -0.0060000000522 0.011374999769
          0.0031057612505 -0.0060000000522 0.011590858921 0 -0.0048854146153 -0.0099121071398
          0.0049560363404 -0.0048854146153 -0.0085841463879 -0.0049560386688 -0.0048854146153 -0.0085841445252
          -0.0085841342807 -0.0048854146153 -0.0049560577609 -0.0099121071398 -0.0048854146153 -3.1065969242e-010
          -0.0085841361433 -0.0048854146153 0.0049560540356 -0.0049560363404 -0.0048854146153 0.0085841463879
          0.0056874998845 -0.0060000000522 0.0098510393873 -1.2138829994e-018 -0.0048854146153 0.0099121071398
          0.0084850974381 -0.0060000000522 0.0084850974381 0.0098510393873 -0.0060000000522 0.0056874998845
          0.0049560386688 -0.0048854146153 0.0085841445252 0.0060000000522 -0.0060000000522 0.01039230451
          0.01039230451 -0.0060000000522 0.0060000000522 0.011374999769 -0.0060000000522 -6.9651787052e-019
          0.0085841342807 -0.0048854146153 0.0049560577609 0.01039230451 -0.0060000000522 -0.0060000000522
          0.0098510393873 -0.0060000000522 -0.0056874998845 0.0099121071398 -0.0048854146153 3.1065930384e-010
          0.011590858921 -0.0060000000522 -0.0031057612505 0.011590858921 -0.0060000000522 0.0031057612505
          0.0060000000522 -0.0060000000522 -0.01039230451 0.0085841361433 -0.0048854146153 -0.0049560540356
          0.0084850974381 -0.0060000000522 -0.0084850974381 0.012000000104 -0.0060000000522 -7.3478805365e-019
          -0.0039551788941 -0.0038492872845 0.0082130134106 1.1158213195e-014 -0.0038492872845 0.0091157574207
          -1.1161197292e-014 -0.0038492872845 -0.0091157574207 0.0039551788941 -0.0038492872845 -0.0082130134106
          -0.0071269860491 -0.0038492872845 -0.0056835818104 -0.0039551788941 -0.0038492872845 -0.0082130134106
          -0.0088872062042 -0.0038492872845 -0.0020284468774 -0.0088872062042 -0.0038492872845 0.0020284468774
          -0.0071269860491 -0.0038492872845 0.0056835818104 -0.0044754818082 -0.0025529144332 -0.0077517856844
          -0.0049210009165 0.0038624317385 -0.0085234260187 0 0.0038624317385 -0.009842004627
          -5.6130458354e-013 0.0046566701494 -0.0096056899056 0 -0.0025529144332 -0.0089509841055
          0.0049210009165 0.0038624317385 -0.00852342695 0.0041677528061 0.0046566701494 -0.0086544277146
          -0.0077517763712 -0.0025529144332 -0.0044754981063 -0.0085234260187 0.0038624317385 -0.0049210027792
          -0.0075100306422 0.0046566701494 -0.0059890495613 -0.0041677528061 0.0046566701494 -0.0086544277146
          -0.0089509841055 -0.0025529144332 -1.0230758463e-009 -0.009842004627 0.0038624317385 7.5103125108e-011
          -0.0093648554757 0.0046566701494 -0.0021374670323 -0.0077517786995 -0.0025529144332 0.0044754939154
          -0.0085234250873 0.0038624317385 0.0049210027792 -0.0093648554757 0.0046566701494 0.0021374670323
          -0.0044754808769 -0.0025529144332 0.00775178615 -0.0049210009165 0.0038624317385 0.00852342695
          -0.0075100306422 0.0046566701494 0.0059890495613 -1.0961794376e-018 -0.0025529144332 0.0089509841055
          -1.2052978986e-018 0.0038624317385 0.009842004627 -0.0041677528061 0.0046566701494 0.0086544277146
          0.0044754818082 -0.0025529144332 0.0077517856844 0.0049210009165 0.0038624317385 0.0085234260187
          5.6130149357e-013 0.0046566701494 0.0096056899056 0.0039551788941 -0.0038492872845 0.0082130134106
          0.0044754808769 -0.0025529144332 -0.00775178615 0.0044247503392 0.0049999998882 0.0076662148349
          0.0044247512706 0.0049999998882 -0.0076662143692 1.3726160548e-031 0.0049999998882 -0.0088515123352
          -2.8468634669e-018 0.0049999998882 0.0088515123352 -0.0044247503392 0.0049999998882 -0.0076662148349
          0.0076653435826 0.0049999998882 0.0044262595475 0.007665344514 0.0049999998882 -0.0044262576848
          0.0075100306422 0.0046566701494 -0.0059890495613 0.0088515123352 0.0049999998882 9.9746155779e-010
          0.0093648554757 0.0046566701494 -0.0021374670323 0.0093648554757 0.0046566701494 0.0021374670323
          0.0075100306422 0.0046566701494 0.0059890495613 0.0041677528061 0.0046566701494 0.0086544277146
          -0.0044247512706 0.0049999998882 0.0076662143692 -0.0076653435826 0.0049999998882 -0.0044262595475
          -0.007665344514 0.0049999998882 0.0044262576848 -0.0088515123352 0.0049999998882 -9.9746166882e-010
          0.0071269860491 -0.0038492872845 0.0056835818104 0.0088872062042 -0.0038492872845 0.0020284468774
          0.0088872062042 -0.0038492872845 -0.0020284468774 0.0071269860491 -0.0038492872845 -0.0056835818104
          0.0077517763712 -0.0025529144332 0.0044754981063 0.0085234260187 0.0038624317385 0.0049210027792
          0.0089509841055 -0.0025529144332 1.0230761793e-009 0.009842004627 0.0038624317385 -7.5103132047e-011
          0.0077517786995 -0.0025529144332 -0.0044754939154 0.0085234250873 0.0038624317385 -0.0049210027792
          0.018477139995 -0.013150000013 0.0076544685289 0.026000000536 -0.013150000013 0.017999999225
          0.026000000536 -0.013150000013 -0.017999999225 0.026000000536 -0.049100000411 -0.017999999225
          0.0076544685289 -0.013150000013 -0.018477139995 0.024928202853 -0.013150000013 -0.021999999881
          0.024927638471 -0.049100000411 -0.022000540048 0.019999999553 -0.013150000013 -1.0414004562e-017
          0.018477139995 -0.013150000013 -0.0076544685289 0.014141998254 -0.013150000013 -0.014141998254
          -4.4408919992e-018 -0.013150000013 0.019999999553 0.024928202853 -0.013150000013 0.021999999881
          0.026000000536 -0.049100000411 0.017999999225 0.0076544685289 -0.013150000013 0.018477139995
          0.014141998254 -0.013150000013 0.014141998254 -0.026000000536 -0.013150000013 0.026000000536
          -0.026000000536 -0.013150000013 0.026000000536 0.021999999881 -0.013150000013 0.024928202853
          0.024927638471 -0.049100000411 0.022000540048 0.017999999225 -0.013150000013 0.026000000536
          0.022000540048 -0.049100000411 0.024927638471 0.017999999225 -0.049100000411 0.026000000536
          -0.018477139995 -0.013150000013 -0.0076544685289 -0.026000000536 -0.013150000013 -0.026000000536
          -0.026000000536 -0.013150000013 -0.026000000536 -0.026000000536 -0.034099999815 0.026000000536
          -0.026000000536 -0.034099999815 0.026000000536 -0.019999999553 -0.013150000013 -1.2246467905e-018
          -0.018477139995 -0.013150000013 0.0076544685289 -0.014141998254 -0.013150000013 0.014141998254
          -0.0076544685289 -0.013150000013 0.018477139995 -0.0076544685289 -0.013150000013 -0.018477139995
          0.017999999225 -0.013150000013 -0.026000000536 -0.026000000536 -0.034099999815 -0.026000000536
          -0.026000000536 -0.034099999815 -0.026000000536 -0.014141998254 -0.013150000013 -0.014141998254
          -0.026000000536 -0.034099999815 -0.01600000076 -0.026000000536 -0.034099999815 -0.01600000076
          -0.026000000536 -0.034099999815 0.01600000076 -0.026000000536 -0.034099999815 0.01600000076
          -0.026000000536 -0.049100000411 0.01600000076 -0.026000000536 -0.049100000411 0.01600000076
          0.021999999881 -0.013150000013 -0.024928202853 0.017999999225 -0.049100000411 -0.026000000536
          -0.054699998349 -0.049100000411 -0.026000000536 0 -0.013150000013 -0.019999999553
          0.022000540048 -0.049100000411 -0.024927638471 -0.054699998349 -0.034099999815 -0.01600000076
          -0.054699998349 -0.034099999815 -0.026000000536 -0.054699998349 -0.034099999815 0.026000000536
          -0.054699998349 -0.049100000411 0.01600000076 -0.054699998349 -0.034099999815 0.01600000076
          -0.026000000536 -0.049100000411 -0.01600000076 -0.026000000536 -0.049100000411 -0.01600000076
          -0.054699998349 -0.049100000411 0.026000000536 -0.054699998349 -0.049100000411 -0.01600000076
          -0.05844964087 -0.035104990005 0.026000000536 -0.05844964087 -0.048095006496 0.026000000536
          -0.061195101589 -0.037849847227 0.026000000536 -0.061195101589 -0.037849847227 0.026000000536
          -0.061195101589 -0.045350152999 0.026000000536 -0.061195101589 -0.045350152999 0.026000000536
          -0.05844964087 -0.048095006496 0.01600000076 -0.062199663371 -0.041600000113 0.026000000536
          -0.061195101589 -0.045350152999 0.01600000076 -0.061195101589 -0.045350152999 0.01600000076
          -0.062199663371 -0.041600000113 0.01600000076 -0.061195101589 -0.037849847227 0.01600000076
          -0.061195101589 -0.037849847227 0.01600000076 -0.05844964087 -0.035104990005 0.01600000076
          -0.05844964087 -0.048095006496 -0.026000000536 -0.05844964087 -0.035104990005 -0.026000000536
          -0.061195101589 -0.045350152999 -0.026000000536 -0.061195101589 -0.045350152999 -0.026000000536
          -0.061195101589 -0.037849847227 -0.026000000536 -0.061195101589 -0.037849847227 -0.026000000536
          -0.05844964087 -0.035104990005 -0.01600000076 -0.062199663371 -0.041600000113 -0.026000000536
          -0.061195101589 -0.037849847227 -0.01600000076 -0.061195101589 -0.037849847227 -0.01600000076
          -0.062199663371 -0.041600000113 -0.01600000076 -0.061195101589 -0.045350152999 -0.01600000076
          -0.061195101589 -0.045350152999 -0.01600000076 -0.05844964087 -0.048095006496 -0.01600000076
          0 -0.0060000000522 -0.011374999769 0.0056874998845 -0.0060000000522 -0.0098510393873
          -0.0056874998845 -0.0060000000522 -0.0098510393873 -0.0098510393873 -0.0060000000522 -0.0056874998845
          -0.011374999769 -0.0060000000522 -6.9651787052e-019 -0.0098510393873 -0.0060000000522 0.0056874998845
          -0.0056874998845 -0.0060000000522 0.0098510393873 0 -0.0060000000522 0.011374999769
          0.0056874998845 -0.0060000000522 0.0098510393873 0.0098510393873 -0.0060000000522 0.0056874998845
          0.011374999769 -0.0060000000522 -6.9651787052e-019 0.0098510393873 -0.0060000000522 -0.0056874998845
          -0.0071269860491 -0.0038492872845 -0.0056835818104 -0.0088872062042 -0.0038492872845 -0.0020284468774
          -0.0088872062042 -0.0038492872845 0.0020284468774 -0.0071269860491 -0.0038492872845 0.0056835818104
          -5.6130458354e-013 0.0046566701494 -0.0096056899056 0.0041677528061 0.0046566701494 -0.0086544277146
          0.0041677528061 0.0046566701494 -0.0086544277146 -0.0085234260187 0.0038624317385 -0.0049210027792
          -0.0075100306422 0.0046566701494 -0.0059890495613 -0.0041677528061 0.0046566701494 -0.0086544277146
          -0.0041677528061 0.0046566701494 -0.0086544277146 -0.009842004627 0.0038624317385 7.5103125108e-011
          -0.0093648554757 0.0046566701494 -0.0021374670323 -0.0085234250873 0.0038624317385 0.0049210027792
          -0.0093648554757 0.0046566701494 0.0021374670323 -0.0075100306422 0.0046566701494 0.0059890495613
          -0.0041677528061 0.0046566701494 0.0086544277146 -0.0041677528061 0.0046566701494 0.0086544277146
          5.6130149357e-013 0.0046566701494 0.0096056899056 0.0075100306422 0.0046566701494 -0.0059890495613
          0.0093648554757 0.0046566701494 -0.0021374670323 0.0093648554757 0.0046566701494 0.0021374670323
          0.0075100306422 0.0046566701494 0.0059890495613 0.0041677528061 0.0046566701494 0.0086544277146
          0.0041677528061 0.0046566701494 0.0086544277146 0.0071269860491 -0.0038492872845 0.0056835818104
          0.0088872062042 -0.0038492872845 0.0020284468774 0.0088872062042 -0.0038492872845 -0.0020284468774
          0.0071269860491 -0.0038492872845 -0.0056835818104 0.0085234260187 0.0038624317385 0.0049210027792
          0.009842004627 0.0038624317385 -7.5103132047e-011 0.0085234250873 0.0038624317385 -0.0049210027792
        </DataArray>
      </Points>
      <Verts>
        <DataArray type="Int64" Name="connectivity" format="ascii" RangeMin="1e+299" RangeMax="-1e+299">
        </DataArray>
        <DataArray type="Int64" Name="offsets" format="ascii" RangeMin="1e+299" RangeMax="-1e+299">
        </DataArray>
      </Verts>
      <Lines>
        <DataArray type="Int64" Name="connectivity" format="ascii" RangeMin="1e+299" RangeMax="-1e+299">
        </DataArray>