<VTKFile type="PolyData" version="0.1" byte_order="LittleEndian" header_type="UInt64">
  <PolyData>
    <Piece NumberOfPoints="832" NumberOfVerts="0" NumberOfLines="0" NumberOfStrips="0" NumberOfPolys="688">
      <PointData Normals="Normals">
        <DataArray type="Float32" Name="Normals" NumberOfComponents="3" format="ascii" RangeMin="0.99999996604" RangeMax="1.0000000341">
          0 0 1 0 0 1
          0 0 1 -0.74325823784 0.66900467873 0
          0 0 1 0 0 1
          -0.20774590969 0.97818285227 0 0 0 1
          0 0 1 0 0 1
          0 0 1 0 0 1
          -0.99450939894 0.10464703292 0 0 0 1
          -0.86602538824 -0.5000000596 0 0 0 1
          0 0 1 -0.40662774444 -0.91359394789 0
          0 0 1 0.20774590969 -0.97818285227 0
          0 0 1 0 0 1
          0.74325823784 -0.66900467873 0 0 0 1
          0 0 1 0.99450939894 -0.10464703292 0
          0 0 1 0 0 1
          0.86602538824 0.5000000596 0 0 0 1
          0.40662774444 0.91359394789 0 0 0 1
          0 0 1 0 0 1
          -0.74325877428 0.66900408268 0 0 0 1
          0 0 1 -0.20774708688 0.97818255424 0
          0 0 1 0 0 1
          -0.99450939894 0.10464701056 0 0 0 1
          0 0 1 -0.86602538824 -0.5 0
          0 0 1 0 0 1
          -0.40662810206 -0.91359376907 0 0 0 1
          0 0 1 0.20774593949 -0.97818279266 0
          0 0 1 0 0 1
          0.74325811863 -0.66900473833 0 0 0 1
          0.99450939894 -0.10464701056 0 0 0 1
          0 0 1 0 0 1
          0.86602538824 0.5 0 0 0 1
          0.40662863851 0.91359353065 0 0 0 1
          0 0 1 0 0 1
          0.070453122258 0.99751508236 0 0 0 1
          0.34488913417 0.93864345551 0 0 0 1
          0 0 1 0 0 1
          0 0 1 0 0 1
          -0.23112668097 0.97292363644 0 0 0 1
          0 0 1 -0.86602532864 0.50000017881 0
          0 0 1 0 0 1
          0 0 1 -0.98480641842 -0.17365559936 0
          0 0 1 -0.91800487041 -0.3965691328 0
          0 0 1 0 0 1
          -0.72674095631 -0.68691158295 0 0 0 1
          0 0 1 0.0017716233851 -0.99999845028 0
          0 0 1 0 0 1
          0.64505332708 -0.76413756609 0 0 0 1
          0 0 1 0 0 1
          0.80443561077 -0.59403979778 0 0 0 1
          0 0 1 0.92893457413 -0.37024390697 0
          0 0 1 0.99963754416 -0.026922775432 0
          0.59353357553 0.80480921268 0 0 0 1
          -0.80443561077 0.59403985739 0 -0.64505308867 0.7641377449 0
          0 0 1 0 0 1
          -0.95903617144 0.28328371048 0 0 0 1
          0 0 1 -0.8651381731 -0.50153356791 0
          0 0 1 -0.34145745635 -0.93989723921 0
          0 0 1 -0.11537048966 -0.99332255125 0
          0.2267818749 -0.97394555807 0 0.85576671362 -0.51736193895 0
          0.91192978621 -0.41034626961 0 0.83770871162 -0.54611724615 0
          0.8452372551 -0.53439122438 0 0.98362976313 0.18020133674 0
          0 0 1 0.91713541746 0.39857581258 0
          0.72674101591 0.68691158295 0 -0.0017720310716 0.99999845028 0
          -0.11537041515 -0.99332255125 0 0 0 1
          -0.34145724773 -0.93989729881 0 0.23112656176 -0.97292369604 0
          0.86602532864 -0.50000017881 0 0.98480629921 0.17365656793 0
          0 0 1 0.91800475121 0.39656940103 0
          0.73007059097 0.6833717227 0 0.020166425034 0.99979662895 0
          -0.10118361562 0.99486774206 0 0.052025727928 0.99864572287 0
          0.036931209266 0.99931782484 0 -0.65056884289 0.75944727659 0
          0 0 1 -0.80584770441 0.59212291241 0
          0 0 1 -0.95903611183 0.28328388929 0
          -0.86513781548 -0.50153422356 0 0.99346190691 0.11416386068 0
          0.98573070765 0.16833005846 0 0.93851292133 0.34524413943 0
          0.81589365005 0.5782020092 0 0.88614648581 0.4634051919 0
          0.9760312438 -0.21763040125 0 0.91301947832 -0.40791597962 0
          0 0 1 0.76799613237 -0.64045447111 0
          0.26100072265 -0.96533858776 0 -0.25757813454 -0.96625745296 0
          -0.70681250095 -0.70740091801 0 -0.81920087337 -0.57350665331 0
          -0.93976259232 -0.34182780981 0 -0.99603837729 0.088924661279 0
          0 0 1 -0.70707648993 0.70713710785 0
          -0.42094475031 0.90708625317 -2.4110784572e-017 -0.086924873292 0.99621486664 -2.3561032065e-017
          0.18616603315 0.98251831532 0 0.74535560608 0.66666710377 0
          0 0 1 0 0 1
          0 0 1 -0.74325823784 0.66900467873 0
          0 0 1 0 0 1
          -0.20774590969 0.97818285227 0 0 0 1
          0 0 1 0 0 1
          0 0 1 0 0 1
          -0.99450939894 0.10464703292 0 0 0 1
          -0.86602538824 -0.5000000596 0 0 0 1
          0 0 1 -0.40662774444 -0.91359394789 0
          0 0 1 0.20774590969 -0.97818285227 0
          0 0 1 0 0 1
          0.74325823784 -0.66900467873 0 0 0 1
          0 0 1 0.99450939894 -0.10464703292 0
          0 0 1 0 0 1
          0.86602538824 0.5000000596 0 0 0 1
          0.40662774444 0.91359394789 0 0 0 1
          0 0 1 0 0 1
          -0.74325877428 0.66900408268 0 0 0 1
          0 0 1 -0.20774708688 0.97818255424 0
          0 0 1 0 0 1
          -0.99450939894 0.10464701056 0 0 0 1
          0 0 1 -0.86602538824 -0.5 0
          0 0 1 0 0 1
          -0.40662810206 -0.91359376907 0 0 0 1
          0 0 1 0.20774593949 -0.97818279266 0
          0 0 1 0 0 1
          0.74325811863 -0.66900473833 0 0 0 1
          0.99450939894 -0.10464701056 0 0 0 1
          0 0 1 0 0 1
          0.86602538824 0.5 0 0 0 1
          0.40662863851 0.91359353065 0 0 0 1
          0 0 1 0 0 1
          0.070453122258 0.99751508236 0 0 0 1
          0.34488913417 0.93864345551 0 0 0 1
          0 0 1 0 0 1
          0 0 1 0 0 1
          -0.23112668097 0.97292363644 0 0 0 1
          0 0 1 -0.86602532864 0.50000017881 0
          0 0 1 0 0 1
          0 0 1 -0.98480641842 -0.17365559936 0
          0 0 1 -0.91800487041 -0.3965691328 0
          0 0 1 0 0 1
          -0.72674095631 -0.68691158295 0 0 0 1
          0 0 1 0.0017716233851 -0.99999845028 0
          0 0 1 0 0 1
          0.64505332708 -0.76413756609 0 0 0 1
          0 0 1 0 0 1
          0.80443561077 -0.59403979778 0 0 0 1
          0 0 1 0.92893457413 -0.37024390697 0
          0 0 1 0.99963754416 -0.026922775432 0
          0.59353357553 0.80480921268 0 0 0 1
          -0.80443561077 0.59403985739 0 -0.64505308867 0.7641377449 0
          0 0 1 0 0 1
          -0.95903617144 0.28328371048 0 0 0 1
          0 0 1 -0.8651381731 -0.50153356791 0
          0 0 1 -0.34145745635 -0.93989723921 0
          0 0 1 -0.11537048966 -0.99332255125 0
          0.2267818749 -0.97394555807 0 0.85576671362 -0.51736193895 0
          0.91192978621 -0.41034626961 0 0.83770871162 -0.54611724615 0
          0.8452372551 -0.53439122438 0 0.98362976313 0.18020133674 0
          0 0 1 0.91713541746 0.39857581258 0
          0.72674101591 0.68691158295 0 -0.0017720310716 0.99999845028 0
          -0.11537041515 -0.99332255125 0 0 0 1
          -0.34145724773 -0.93989729881 0 0.23112656176 -0.97292369604 0
          0.86602532864 -0.50000017881 0 0.98480629921 0.17365656793 0
          0 0 1 0.91800475121 0.39656940103 0
          0.73007059097 0.6833717227 0 0.020166425034 0.99979662895 0
          -0.10118361562 0.99486774206 0 0.052025727928 0.99864572287 0
          0.036931209266 0.99931782484 0 -0.65056884289 0.75944727659 0
          0 0 1 -0.80584770441 0.59212291241 0
          0 0 1 -0.95903611183 0.28328388929 0
          -0.86513781548 -0.50153422356 0 0.99346190691 0.11416386068 0
          0.98573070765 0.16833005846 0 0.93851292133 0.34524413943 0
          0.81589365005 0.5782020092 0 0.88614648581 0.4634051919 0
          0.9760312438 -0.21763040125 0 0.91301947832 -0.40791597962 0
          0 0 1 0.76799613237 -0.64045447111 0
          0.26100072265 -0.96533858776 0 -0.25757813454 -0.96625745296 0
          -0.70681250095 -0.70740091801 0 -0.81920087337 -0.57350665331 0
          -0.93976259232 -0.34182780981 0 -0.99603837729 0.088924661279 0
          0 0 1 -0.70707648993 0.70713710785 0
          -0.42094475031 0.90708625317 5.7866055646e-019 -0.086924873292 0.99621486664 5.6546645701e-019
          0.18616603315 0.98251831532 0 0.74535560608 0.66666710377 0
          0.8854150176 -0.46480131149 0 -0.74325823784 0.66900467873 0
          -0.99450939894 0.10464703292 0 -0.74325823784 0.66900467873 0
          -0.20774590969 0.97818285227 0 -0.20774590969 0.97818285227 0
          0 0 -1 0.95685255527 0.29057389498 0
          -0.20774590969 0.97818285227 0 0.40662774444 0.91359394789 0
          0.40662774444 0.91359394789 0 0 0 -1
          0.89180576801 -0.45241841674 0 0.81133514643 -0.58458125591 0
          0.87593197823 -0.4824346602 0 0.98362976313 0.18020133674 0
          0.33575585485 -0.9419490695 0 0.85576671362 -0.51736193895 0
          -0.99450939894 0.10464703292 0 -0.86602538824 -0.5000000596 0
          -0.74325823784 0.66900467873 0 0 0 -1
          -0.86602538824 -0.5000000596 0 -0.40662774444 -0.91359394789 0
          -0.99450939894 0.10464703292 0 0 0 -1
          -0.17384974658 0.98477220535 -2.3561030411e-017 -0.40662774444 -0.91359394789 0
          0.20774590969 -0.97818285227 0 -0.86602538824 -0.5000000596 0
          0 0 -1 0.20774590969 -0.97818285227 0
          0.74325823784 -0.66900467873 0 -0.40662774444 -0.91359394789 0
          0 0 -1 -0.9960321188 -0.088994301856 0
          0.74325823784 -0.66900467873 0 0.99450939894 -0.10464703292 0
          0.20774590969 -0.97818285227 0 0 0 -1
          -0.96593689919 0.25877767801 0 -0.70707648993 0.70713710785 0
          0.99450939894 -0.10464703292 0 0.86602538824 0.5000000596 0
          0.74325823784 -0.66900467873 0 0 0 -1
          -0.90620982647 -0.42282828689 0 0.86602538824 0.5000000596 0
          0.40662774444 0.91359394789 0 0.99450939894 -0.10464703292 0
          0 0 -1 -0.76572209597 -0.64317154884 0
          0.86602538824 0.5000000596 0 0 0 -1
          0.82122778893 -0.57060045004 0 -0.74325877428 0.66900408268 0
          -0.99450939894 0.10464701056 0 -0.74325877428 0.66900408268 0
          -0.20774708688 0.97818255424 0 -0.20774708688 0.97818255424 0
          0 0 -1 0.26100072265 -0.96533858776 0
          -0.25757813454 -0.96625745296 0 -0.20774708688 0.97818255424 0
          0.40662863851 0.91359353065 0 0.40662863851 0.91359353065 0
          0 0 -1 0.94946449995 -0.31387448311 0
          -0.99450939894 0.10464701056 0 -0.86602538824 -0.5 0
          -0.74325877428 0.66900408268 0 0 0 -1
          -0.73248749971 0.68078047037 0 -0.86602538824 -0.5 0
          -0.40662810206 -0.91359376907 0 -0.99450939894 0.10464701056 0
          0 0 -1 -0.023707451299 0.9997189641 0
          -0.65056884289 0.75944727659 0 -0.40662810206 -0.91359376907 0
          0.20774593949 -0.97818279266 0 -0.86602538824 -0.5 0
          0 0 -1 0.097657524049 0.99522006512 0
          0.20774593949 -0.97818279266 0 0.74325811863 -0.66900473833 0
          -0.40662810206 -0.91359376907 0 0 0 -1
          -0.055565122515 0.99845504761 0 0.74325811863 -0.66900473833 0
          0.99450939894 -0.10464701056 0 0.20774593949 -0.97818279266 0
          0 0 -1 0.99450939894 -0.10464701056 0
          0.86602538824 0.5 0 0.74325811863 -0.66900473833 0
          0 0 -1 -0.040471311659 0.99918067455 0
          0.64787381887 0.76174765825 0 0.020166425034 0.99979662895 0
          0.86602538824 0.5 0 0.40662863851 0.91359353065 0
          0.99450939894 -0.10464701056 0 0 0 -1
          -0.25757813454 -0.96625745296 0 -0.70681250095 -0.70740091801 0
          0.86602538824 0.5 0 0 0 -1
          0.11556328088 -0.9933001399 0 -0.11556334049 0.9933001399 0
          0.14090624452 0.99002295732 0 0 0 -1
          0.4752163887 0.87986898422 0 0 0 -1
          0.34201228619 -0.93969547749 0 0.86602532864 -0.50000017881 0
          0.86602532864 -0.50000017881 0 0.98480629921 0.17365656793 0
          0.95813989639 0.28630051017 0 -0.2307408303 -0.97301524878 0
          -0.342012465 0.93969541788 0 -0.86602532864 0.50000017881 0
          0 0 -1 0.83496171236 0.55030804873 0
          -0.86602532864 0.50000017881 0 -0.98480641842 -0.17365559936 0
          -0.342012465 0.93969541788 0 0 0 -1
          0.92793983221 0.37273001671 0 0.9760312438 -0.21763040125 0
          0.85245251656 0.52280461788 0 -0.95814007521 -0.28629988432 0
          -0.86602532864 0.50000017881 0 0 0 -1
          -0.80232560635 -0.59688663483 0 0 0 -1
          0.97620052099 0.21686977148 0 -0.64234131575 -0.76641869545 0
          0.0017716233851 -0.99999845028 0 0 0 -1
          0.98996537924 0.14130997658 0 0.0017716233851 -0.99999845028 0
          0.64505332708 -0.76413756609 0 -0.64234131575 -0.76641869545 0
          0 0 -1 -0.91932785511 0.39349243045 0
          0.72917062044 -0.68433189392 0 0.0017716233851 -0.99999845028 0
          0 0 -1 0.98573070765 0.16833005846 0
          0.74535560608 0.66666710377 0 -0.72917050123 0.68433207273 0
          0.90051752329 -0.43481972814 0 0 0 -1
          -0.64505308867 0.7641377449 0 -0.0017720310716 0.99999845028 0
          0.98568600416 -0.16859157383 0 0 0 -1
          0.9936529398 0.11248909682 0 0.59353357553 0.80480921268 0
          0 0 -1 0.9936529398 0.11248909682 0
          0 0 -1 0.64234149456 0.76641857624 0
          -0.0017720310716 0.99999845028 0 0 0 -1
          -0.0017720310716 0.99999845028 0 0 0 -1
          0.27681353688 0.96092367172 0 0.74535560608 0.66666710377 0
          -0.98531478643 0.17074771225 0 -0.8651381731 -0.50153356791 0
          0 0 -1 0.093083016574 0.99565833807 0
          -0.8651381731 -0.50153356791 0 -0.34145745635 -0.93989723921 0
          -0.98531478643 0.17074771225 0 0 0 -1
          -0.23074096441 -0.97301518917 0 -0.8651381731 -0.50153356791 0
          0 0 -1 0.11339093745 -0.99355041981 0
          0 0 -1 0 0 -1
          0.33575585485 -0.9419490695 0 0 0 -1
          0 0 -1 0 0 -1
          0 0 -1 0.87593197823 -0.4824346602 0
          0 0 -1 0.80232560635 0.59688663483 0
          0 0 -1 0 0 -1
          0.64234149456 0.76641857624 0 0 0 -1
          0 0 -1 -0.34145724773 -0.93989729881 0
          -0.86513781548 -0.50153422356 0 -0.86513781548 -0.50153422356 0
          0 0 -1 0 0 -1
          0.34201228619 -0.93969547749 0 0 0 -1
          0.86602532864 -0.50000017881 0 0 0 -1
          0.80374437571 0.59497475624 0 0 0 -1
          0 0 -1 0.64787381887 0.76174765825 0
          0 0 -1 0 0 -1
          0 0 -1 0 0 -1
          -0.023707451299 0.9997189641 0 0 0 -1
          -0.91932779551 0.39349251986 0 0 0 -1
          -0.98531472683 0.17074808478 0 -0.86513781548 -0.50153422356 0
          0 0 -1 -0.98531472683 0.17074808478 0
          0 0 -1 0 0 -1
          0.74535560608 0.66666710377 0 0 0 -1
          0 0 -1 0 0 -1
          0 0 -1 0.92793983221 0.37273001671 0
          0 0 -1 0 0 -1
          0.7093142271 -0.70489239693 0 0.26100072265 -0.96533858776 0
          0 0 -1 0.7093142271 -0.70489239693 0
          0 0 -1 0.26100072265 -0.96533858776 0
          0 0 -1 -0.25757813454 -0.96625745296 0
          0 0 -1 0 0 -1
          0 0 -1 0 0 -1
          -0.57503020763 0.81813216209 0 -0.96593689919 0.25877767801 0
          0 0 -1 0 0 -1
          0 0 -1 0 0 -1
          0.27681353688 0.96092367172 0 0 0 -1
          0.8854150176 -0.46480131149 0 -0.74325823784 0.66900467873 0
          -0.99450939894 0.10464703292 0 -0.74325823784 0.66900467873 0
          -0.20774590969 0.97818285227 0 -0.20774590969 0.97818285227 0
          0 0 -1 0.95685255527 0.29057389498 0
          -0.20774590969 0.97818285227 0 0.40662774444 0.91359394789 0
          0.40662774444 0.91359394789 0 0 0 -1
          0.89180576801 -0.45241841674 0 0.81133514643 -0.58458125591 0
          0.87593197823 -0.4824346602 0 0.98362976313 0.18020133674 0
          0.33575585485 -0.9419490695 0 0.85576671362 -0.51736193895 0
          -0.99450939894 0.10464703292 0 -0.86602538824 -0.5000000596 0
          -0.74325823784 0.66900467873 0 0 0 -1
          -0.86602538824 -0.5000000596 0 -0.40662774444 -0.91359394789 0
          -0.99450939894 0.10464703292 0 0 0 -1
          -0.17384974658 0.98477220535 5.6546640531e-019 -0.40662774444 -0.91359394789 0
          0.20774590969 -0.97818285227 0 -0.86602538824 -0.5000000596 0
          0 0 -1 0.20774590969 -0.97818285227 0
          0.74325823784 -0.66900467873 0 -0.40662774444 -0.91359394789 0
          0 0 -1 -0.9960321188 -0.088994301856 0
          0.74325823784 -0.66900467873 0 0.99450939894 -0.10464703292 0
          0.20774590969 -0.97818285227 0 0 0 -1
          -0.96593689919 0.25877767801 0 -0.70707648993 0.70713710785 0
          0.99450939894 -0.10464703292 0 0.86602538824 0.5000000596 0
          0.74325823784 -0.66900467873 0 0 0 -1
          -0.90620982647 -0.42282828689 0 0.86602538824 0.5000000596 0
          0.40662774444 0.91359394789 0 0.99450939894 -0.10464703292 0
          0 0 -1 -0.76572209597 -0.64317154884 0
          0.86602538824 0.5000000596 0 0 0 -1
          0.82122778893 -0.57060045004 0 -0.74325877428 0.66900408268 0
          -0.99450939894 0.10464701056 0 -0.74325877428 0.66900408268 0
          -0.20774708688 0.97818255424 0 -0.20774708688 0.97818255424 0
          0 0 -1 0.26100072265 -0.96533858776 0
          -0.25757813454 -0.96625745296 0 -0.20774708688 0.97818255424 0
          0.40662863851 0.91359353065 0 0.40662863851 0.91359353065 0
          0 0 -1 0.94946449995 -0.31387448311 0
          -0.99450939894 0.10464701056 0 -0.86602538824 -0.5 0
          -0.74325877428 0.66900408268 0 0 0 -1
          -0.73248749971 0.68078047037 0 -0.86602538824 -0.5 0
          -0.40662810206 -0.91359376907 0 -0.99450939894 0.10464701056 0
          0 0 -1 -0.023707451299 0.9997189641 0
          -0.65056884289 0.75944727659 0 -0.40662810206 -0.91359376907 0
          0.20774593949 -0.97818279266 0 -0.86602538824 -0.5 0
          0 0 -1 0.097657524049 0.99522006512 0
          0.20774593949 -0.97818279266 0 0.74325811863 -0.66900473833 0
          -0.40662810206 -0.91359376907 0 0 0 -1
          -0.055565122515 0.99845504761 0 0.74325811863 -0.66900473833 0
          0.99450939894 -0.10464701056 0 0.20774593949 -0.97818279266 0
          0 0 -1 0.99450939894 -0.10464701056 0
          0.86602538824 0.5 0 0.74325811863 -0.66900473833 0
          0 0 -1 -0.040471311659 0.99918067455 0
          0.64787381887 0.76174765825 0 0.020166425034 0.99979662895 0
          0.86602538824 0.5 0 0.40662863851 0.91359353065 0
          0.99450939894 -0.10464701056 0 0 0 -1
          -0.25757813454 -0.96625745296 0 -0.70681250095 -0.70740091801 0
          0.86602538824 0.5 0 0 0 -1
          0.11556328088 -0.9933001399 0 -0.11556334049 0.9933001399 0
          0.14090624452 0.99002295732 0 0 0 -1
          0.4752163887 0.87986898422 0 0 0 -1
          0.34201228619 -0.93969547749 0 0.86602532864 -0.50000017881 0
          0.86602532864 -0.50000017881 0 0.98480629921 0.17365656793 0
          0.95813989639 0.28630051017 0 -0.2307408303 -0.97301524878 0
          -0.342012465 0.93969541788 0 -0.86602532864 0.50000017881 0
          0 0 -1 0.83496171236 0.55030804873 0
          -0.86602532864 0.50000017881 0 -0.98480641842 -0.17365559936 0
          -0.342012465 0.93969541788 0 0 0 -1
          0.92793983221 0.37273001671 0 0.9760312438 -0.21763040125 0
          0.85245251656 0.52280461788 0 -0.95814007521 -0.28629988432 0
          -0.86602532864 0.50000017881 0 0 0 -1
          -0.80232560635 -0.59688663483 0 0 0 -1
          0.97620052099 0.21686977148 0 -0.64234131575 -0.76641869545 0
          0.0017716233851 -0.99999845028 0 0 0 -1
          0.98996537924 0.14130997658 0 0.0017716233851 -0.99999845028 0
          0.64505332708 -0.76413756609 0 -0.64234131575 -0.76641869545 0
          0 0 -1 -0.91932785511 0.39349243045 0
          0.72917062044 -0.68433189392 0 0.0017716233851 -0.99999845028 0
          0 0 -1 0.98573070765 0.16833005846 0
          0.74535560608 0.66666710377 0 -0.72917050123 0.68433207273 0
          0.90051752329 -0.43481972814 0 0 0 -1
          -0.64505308867 0.7641377449 0 -0.0017720310716 0.99999845028 0
          0.98568600416 -0.16859157383 0 0 0 -1
          0.9936529398 0.11248909682 0 0.59353357553 0.80480921268 0
          0 0 -1 0.9936529398 0.11248909682 0
          0 0 -1 0.64234149456 0.76641857624 0
          -0.0017720310716 0.99999845028 0 0 0 -1
          -0.0017720310716 0.99999845028 0 0 0 -1
          0.27681353688 0.96092367172 0 0.74535560608 0.66666710377 0
          -0.98531478643 0.17074771225 0 -0.8651381731 -0.50153356791 0
          0 0 -1 0.093083016574 0.99565833807 0
          -0.8651381731 -0.50153356791 0 -0.34145745635 -0.93989723921 0
          -0.98531478643 0.17074771225 0 0 0 -1
          -0.23074096441 -0.97301518917 0 -0.8651381731 -0.50153356791 0
          0 0 -1 0.11339093745 -0.99355041981 0
          0 0 -1 0 0 -1
          0.33575585485 -0.9419490695 0 0 0 -1
          0 0 -1 0 0 -1
          0 0 -1 0.87593197823 -0.4824346602 0
          0 0 -1 0.80232560635 0.59688663483 0
          0 0 -1 0 0 -1
          0.64234149456 0.76641857624 0 0 0 -1
          0 0 -1 -0.34145724773 -0.93989729881 0
          -0.86513781548 -0.50153422356 0 -0.86513781548 -0.50153422356 0
          0 0 -1 0 0 -1
          0.34201228619 -0.93969547749 0 0 0 -1
          0.86602532864 -0.50000017881 0 0 0 -1
          0.80374437571 0.59497475624 0 0 0 -1
          0 0 -1 0.64787381887 0.76174765825 0
          0 0 -1 0 0 -1
          0 0 -1 0 0 -1
          -0.023707451299 0.9997189641 0 0 0 -1
          -0.91932779551 0.39349251986 0 0 0 -1
          -0.98531472683 0.17074808478 0 -0.86513781548 -0.50153422356 0
          0 0 -1 -0.98531472683 0.17074808478 0
          0 0 -1 0 0 -1
          0.74535560608 0.66666710377 0 0 0 -1
          0 0 -1 0 0 -1
          0 0 -1 0.92793983221 0.37273001671 0
          0 0 -1 0 0 -1
          0.7093142271 -0.70489239693 0 0.26100072265 -0.96533858776 0
          0 0 -1 0.7093142271 -0.70489239693 0
          0 0 -1 0.26100072265 -0.96533858776 0
          0 0 -1 -0.25757813454 -0.96625745296 0
          0 0 -1 0 0 -1
          0 0 -1 0 0 -1
          -0.57503020763 0.81813216209 0 -0.96593689919 0.25877767801 0
          0 0 -1 0 0 -1
          0 0 -1 0 0 -1
          0.27681353688 0.96092367172 0 0 0 -1
        </DataArray>
      </PointData>
      <CellData>
      </CellData>
      <Points>
        <DataArray type="Float32" Name="Points" NumberOfComponents="3" format="ascii" RangeMin="0.02697444012" RangeMax="0.091644736839">
          0.0073484694585 -0.001500000013 -0.026507999748 0.0045630559325 -0.0020309826359 -0.026507999748
          0.0024975000415 -0.00432579685 -0.026507999748 0.0024975000415 -0.00432579685 -0.034508001059
          0.0039586606435 -0.011856601574 -0.026507999748 -0.00052264530677 -0.0049672136083 -0.026507999748
          -0.00052264530677 -0.0049672136083 -0.034508001059 0.0064951903187 -0.0037499999162 -0.026507999748
          0.004973272793 -0.005613961257 -0.026507999748 0.0033537158743 -0.0085545079783 -0.026507999748
          0.0090852789581 0.0013728508493 -0.026507999748 0.0048859235831 0.0010373789119 -0.026507999748
          0.0045630559325 -0.0020309826359 -0.034508001059 0.003341358155 0.0037126443349 -0.026507999748
          0.0048859235831 0.0010373789119 -0.034508001059 0 0.0074999998324 -0.026507999748
          0.00052264530677 0.0049672136083 -0.026507999748 0.003341358155 0.0037126443349 -0.034508001059
          -0.0024975000415 0.00432579685 -0.026507999748 0.00052264530677 0.0049672136083 -0.034508001059
          -0.007499711588 -1.4817809415e-006 -0.026507999748 -0.0045630559325 0.0020309826359 -0.026507999748
          -0.0024975000415 0.00432579685 -0.034508001059 -0.0064947460778 0.0037497433368 -0.026507999748
          -0.0048859235831 -0.0010373789119 -0.026507999748 -0.0045630559325 0.0020309826359 -0.034508001059
          -0.0064951903187 -0.0037499999162 -0.026507999748 -0.003341358155 -0.0037126443349 -0.026507999748
          -0.0048859235831 -0.0010373789119 -0.034508001059 0.03220481053 -0.070780366659 -0.026507999748
          -0.003341358155 -0.0037126443349 -0.034508001059 0.045208439231 -0.070757329464 -0.026507999748
          0.043263055384 -0.069061346352 -0.026507999748 0.041197501123 -0.071356162429 -0.026507999748
          0.041197501123 -0.071356162429 -0.034508001059 0.038713287562 -0.074529841542 -0.026507999748
          0.038177356124 -0.071997582912 -0.026507999748 0.038177356124 -0.071997582912 -0.034508001059
          0.066864132881 -0.032939728349 -0.026507999748 0.043585922569 -0.065992988646 -0.026507999748
          0.043263055384 -0.069061346352 -0.034508001059 0.046955581754 -0.0576444529 -0.026507999748
          0.042041357607 -0.063317723572 -0.026507999748 0.043585922569 -0.065992988646 -0.034508001059
          0.044406078756 -0.059828445315 -0.026507999748 0.039222646505 -0.062063153833 -0.026507999748
          0.042041357607 -0.063317723572 -0.034508001059 0.041049972177 -0.059908032417 -0.026507999748
          0.036202501506 -0.062704570591 -0.026507999748 0.039222646505 -0.062063153833 -0.034508001059
          0.038686711341 -0.059530377388 -0.026507999748 0.034136943519 -0.064999386668 -0.026507999748
          0.036202501506 -0.062704570591 -0.034508001059 0.033814076334 -0.068067744374 -0.026507999748
          0.034136943519 -0.064999386668 -0.034508001059 0.036324802786 -0.05991640687 -0.026507999748
          0.032968435436 -0.059848707169 -0.026507999748 0.035358641297 -0.070743009448 -0.026507999748
          0.033814076334 -0.068067744374 -0.034508001059 0.034954611212 -0.073527880013 -0.026507999748
          0.035358641297 -0.070743009448 -0.034508001059 0.029681840912 -0.041410457343 -0.026507999748
          0.047579698265 -0.036410454661 -0.026507999748 0.021021585912 -0.036410454661 -0.026507999748
          0.021021585912 -0.036410454661 -0.034508001059 0.018966000527 -0.035968262702 -0.026507999748
          0.018966000527 -0.035968262702 -0.034508001059 0.026468452066 -0.042580004781 -0.026507999748
          0.024757876992 -0.045542806387 -0.026507999748 0.025351714343 -0.048910457641 -0.026507999748
          0.047626812011 -0.041410457343 -0.026507999748 0.050793085247 -0.035240907222 -0.026507999748
          0.047579698265 -0.036410454661 -0.034508001059 0.066312924027 -0.026173200458 -0.026507999748
          0.052503660321 -0.032278105617 -0.026507999748 0.050793085247 -0.035240907222 -0.034508001059
          0.067637570202 -0.029471008107 -0.026507999748 0.048880569637 -0.0047311978415 -0.026507999748
          0.051909826696 -0.028910456225 -0.026507999748 0.052503660321 -0.032278105617 -0.034508001059
          0.039569232613 -0.007535922341 -0.026507999748 0.051909826696 -0.028910456225 -0.034508001059
          0.047503523529 -0.0021120475139 -0.026507999748 0.036944132298 -0.0053358059376 -0.026507999748
          0.039569232613 -0.007535922341 -0.034508001059 0.047246441245 0.00083333335351 -0.026507999748
          0.033517435193 -0.0053418767639 -0.026507999748 0.036944132298 -0.0053358059376 -0.034508001059
          0.026608144864 -0.0049846405163 -0.026507999748 0.030900148675 -0.0075512817129 -0.026507999748
          0.033517435193 -0.0053418767639 -0.034508001059 0.046687420458 0.0041069253348 -0.026507999748
          0.017675390467 -0.020584018901 -0.026507999748 0.017675535753 -0.030645582825 -0.026507999748
          0.030900148675 -0.0075512817129 -0.034508001059 0.015058103018 -0.022793423384 -0.026507999748
          0.017038650811 -0.032640304416 -0.026507999748 0.017675535753 -0.030645582825 -0.034508001059
          0.017274150625 -0.034720551223 -0.026507999748 0.017038650811 -0.032640304416 -0.034508001059
          0.017274150625 -0.034720551223 -0.034508001059 0.011631405912 -0.022799495608 -0.026507999748
          0.017675390467 -0.020584018901 -0.034508001059 0.015058103018 -0.022793423384 -0.034508001059
          0.044474799186 0.0065807080828 -0.026507999748 0.027191087604 -0.0016207179287 -0.026507999748
          0.026608144864 -0.0049846405163 -0.034508001059 0.041283592582 0.0074999998324 -0.026507999748
          0.025478051975 0.0013342440361 -0.026507999748 0.027191087604 -0.0016207179287 -0.034508001059
          0.022269187495 0.0024999999441 -0.026507999748 0.025478051975 0.0013342440361 -0.034508001059
          0.012247448787 0.0024999999441 -0.026507999748 0.022269187495 0.0024999999441 -0.034508001059
          0.012247448787 0.0024999999441 -0.034508001059 0.0090852789581 0.0013728508493 -0.034508001059
          0.0073484694585 -0.001500000013 -0.034508001059 0.0064951903187 -0.0037499999162 -0.034508001059
          0.004973272793 -0.005613961257 -0.034508001059 0.0033537158743 -0.0085545079783 -0.034508001059
          0.0090063055977 -0.020599378273 -0.026507999748 0.0039586606435 -0.011856601574 -0.034508001059
          0.0090063055977 -0.020599378273 -0.034508001059 0.011631405912 -0.022799495608 -0.034508001059
          0.047626812011 -0.041410457343 -0.034508001059 0.050835676491 -0.042576212436 -0.026507999748
          0.050835676491 -0.042576212436 -0.034508001059 0.029681840912 -0.041410457343 -0.034508001059
          0.026468452066 -0.042580004781 -0.034508001059 0.024757876992 -0.045542806387 -0.034508001059
          0.030411211774 -0.057673763484 -0.026507999748 0.025351714343 -0.048910457641 -0.034508001059
          0.030411211774 -0.057673763484 -0.034508001059 0.032968435436 -0.059848707169 -0.034508001059
          0.036324802786 -0.05991640687 -0.034508001059 0.038686711341 -0.059530377388 -0.034508001059
          0.041049972177 -0.059908032417 -0.034508001059 0.044406078756 -0.059828445315 -0.034508001059
          0.05196576938 -0.048895098269 -0.026507999748 0.046955581754 -0.0576444529 -0.034508001059
          0.052548713982 -0.045531172305 -0.026507999748 0.05196576938 -0.048895098269 -0.034508001059
          0.052548713982 -0.045531172305 -0.034508001059 0.047246441245 0.00083333335351 -0.034508001059