<VTKFile type="PolyData" version="0.1" byte_order="LittleEndian">
  <PolyData>
    <Piece NumberOfPoints="684" NumberOfVerts="0" NumberOfLines="0" NumberOfStrips="0" NumberOfPolys="968">
      <PointData Normals="Normals">
        <DataArray type="Float32" Name="Normals" NumberOfComponents="3" format="ascii" RangeMin="0.99999996013" RangeMax="1.0000000375">
          0 1 0 0 1 0
          0 1 0 0.25887003541 6.8714238296e-005 0.96591216326
          0 1 0 0 1 0
          -0.4209818244 9.4480208645e-005 0.90706908703 0 1 0
          0 1 0 0 1 0
          0.57505398989 9.4480208645e-005 0.81811547279 0 1 0
          0 1 0 0.96593946218 6.8755813118e-005 0.25876808167
          0 1 0 0 1 0
          0.99603575468 9.4529706985e-005 -0.088953606784 0 1 0
          0.70706945658 6.8725370511e-005 -0.7071441412 0 1 0
          0 1 0 0.4209817946 9.4480201369e-005 -0.90706908703
          0 1 0 0 1 0
          -0.25887003541 6.8714238296e-005 -0.96591216326 0 1 0
          0 1 0 0 1 0
          -0.57505398989 9.4480208645e-005 -0.81811547279 0 1 0
          0 1 0 -0.96593946218 6.8755813118e-005 -0.25876808167
          0 1 0 0 1 0
          -0.99603575468 9.4529706985e-005 0.088953606784 -0.70706945658 6.8725370511e-005 0.7071441412
          -0.87523025274 0.48369887471 0.0027177908923 -0.78704929352 0.47890329361 0.38885089755
          -0.54417407513 0.48492944241 -0.68462985754 -0.82590097189 0.40649360418 -0.39070516825
          -0.21042869985 0.48112440109 -0.85102236271 0.17590530217 0.45918378234 -0.8707511425
          0.54204571247 0.48336112499 -0.68742161989 0.78785425425 0.46997484565 -0.39800670743
          0.86774092913 0.49692571163 0.0095156999305 0.56856226921 0.46299135685 0.67998236418
          0.83170449734 0.43388086557 0.34643179178 0.20697808266 0.48214298487 0.85129207373
          -0.18177883327 0.45919200778 0.86953961849 -0.54417407513 0.48492944241 0.68462985754
          0.95790344477 -0.10479719937 -0.26727983356 0.94804120064 0.13342729211 -0.28881666064
          0.98830735683 0.15190161765 0.013209147379 0.99549919367 -0.091633908451 0.024178562686
          0.95580804348 0.10284606367 0.27541539073 0.87173044682 -0.083682835102 -0.48278695345
          0.82553166151 0.11464296281 -0.55258888006 0.69889169931 -0.097944028676 -0.70848947763
          0.65874451399 0.1478985399 -0.73768675327 0.50553166866 -0.070434086025 -0.85992836952
          0.4042865932 0.13286571205 -0.90493041277 0.25432634354 -0.094183512032 -0.96252149343
          0.12135598063 0.09632588923 -0.98792409897 -0.11400500685 -0.01981417276 -0.99328255653
          -0.13324980438 0.14276710153 -0.98074567318 -0.069761998951 -0.068972446024 -0.99517637491
          -0.34423264861 -0.027610525489 -0.93847829103 -0.44133493304 0.1277898401 -0.88819664717
          -0.62142127752 -0.016546007246 -0.7833018899 -0.71625739336 0.12338835001 -0.68684107065
          -0.85043364763 -0.051287800074 -0.52357631922 -0.92115008831 0.096394024789 -0.37708178163
          -0.4778881371 -0.062648013234 -0.87618386745 -0.017215656117 -0.34453073144 -0.93861716986
          -0.38270294666 -0.28558325768 -0.87862432003 0.40894570947 -0.32565557957 -0.85247397423
          0.758464396 -0.31919881701 -0.56819349527 0.92374312878 -0.32629317045 -0.20057752728
          0.96276015043 -0.081658542156 0.25773012638 0.92165720463 -0.31550312042 0.22584456205
          0.8755389452 -0.094928570092 0.47372996807 0.81537371874 0.13644830883 0.56262558699
          0.71494704485 -0.076016031206 0.69503396749 0.71200364828 -0.31896975636 0.62554705143
          0.63848155737 0.10086641461 0.76299887896 0.52393972874 -0.10165850818 0.84566706419
          0.4042865932 0.13286571205 0.90493041277 0.23380470276 -0.08017320931 0.96897244453
          0.35991930962 -0.30238461494 0.88262200356 -0.030386991799 -0.0093359379098 0.99949461222
          -0.038067732006 -0.11835806817 0.99224102497 0.10387275368 0.14594352245 0.98382467031
          -0.36356952786 -0.018838793039 0.93137657642 -0.48274388909 -0.080262117088 0.87207585573
          -0.0059719844721 -0.31297782063 0.94974166155 -0.15951353312 0.10404663533 0.98169738054
          -0.6763561964 0.10877772421 0.72849822044 -0.68166178465 -0.001108107972 0.73166656494
          -0.42407971621 0.15061751008 0.89301216602 -0.90397286415 0.11996161193 0.41041716933
          -0.88359498978 -0.052306946367 0.46532124281 0.064800016582 -0.48259437084 -0.87344354391
          -0.40612989664 -0.49159041047 -0.77032291889 0.47166904807 -0.49735802412 -0.72812312841
          0.75858271122 -0.5048828125 -0.41188058257 0.86182832718 -0.50720012188 0
          0.75858271122 -0.5048828125 0.41188058257 0.40612992644 -0.49159038067 0.77032291889
          -0.064800016582 -0.48259437084 0.87344354391 -0.37736597657 -0.34344947338 0.8600217104
          0 -1 0 0 -1 0
          0 -1 0 0 -1 0
          0 -1 0 0 -1 0
          0 -1 0 0 -1 0
          0 -1 0 -0.25884020329 0 0.96592015028
          0.42098098993 0 0.90706944466 -0.57505476475 0 0.81811493635
          -0.96593147516 0 0.25879797339 -0.99603569508 0 -0.088954553008
          -0.70709133148 0 -0.70712226629 -0.42098098993 0 -0.90706944466
          0 -1 0 0.25884020329 0 -0.96592015028
          0 -1 0 0.57505476475 0 -0.81811493635
          0 -1 0 0 -1 0
          0.96593147516 0 -0.25879797339 0 -1 0
          0 -1 0 0.99603569508 0 0.088954553008
          0 -1 0 0.70709133148 0 0.70712226629
          -0.71943098307 -0.31538292766 -0.61883169413 -0.92254698277 -0.31521782279 -0.22258646786
          -0.92254704237 -0.31521779299 0.22258645296 -0.71943098307 -0.31538292766 0.61883169413
          0 -1 0 0 -1 0
          0 -1 0 0 -1 0
          0 -1 0 0 -1 0
          0 -1 0 0 -1 0
          0 -1 0 0 -1 0
          0 -1 0 0 -1 0
          0 -1 0 0 -1 0
          0 -1 0 0 -1 0
          0 -1 0 0 -1 0
          0 -1 0 0 -1 0
          0.48214054108 -0.0049728318118 0.87607979774 0.54160618782 -0.014757568948 0.84050279856
          0.15370094776 0 0.98811739683 -0.3074657917 0 0.95155912638
          -0.56427031755 -0.031333196908 0.82499527931 -0.84050279856 -0.014757568948 0.54160618782
          -0.29152318835 -0.021507933736 0.95632195473 -0.87607300282 -0.0049728294834 0.48215287924
          -0.98811018467 0 0.15374721587 -0.95157051086 0 -0.30743053555
          -0.82499933243 -0.031333226711 -0.5642644763 -0.54160618782 -0.014757568948 -0.84050279856
          -0.95632195473 -0.021507933736 -0.29152318835 -0.48215287924 -0.0049728294834 -0.87607300282
          -0.15374721587 0 -0.98811018467 0.30743053555 0 -0.95157051086
          0.5642644763 -0.031333226711 -0.82499933243 0.84050279856 -0.014757568948 -0.54160618782
          0.29152318835 -0.021507933736 -0.95632195473 0.87607300282 -0.0049728294834 -0.48215287924
          0.98811018467 0 -0.15374721587 0.95157051086 0 0.30743053555
          0.82499933243 -0.031333226711 0.5642644763 0.95632195473 -0.021507933736 0.29152318835
          0 -1 0 0 -1 0
          0 -1 0 0 -1 0
          0 -1 0 0 -1 0
          0 -1 0 0 -1 0
          0 -1 0 0 -1 0
          0 -1 0 0 -1 0
          0 -1 0 0 -1 0
          0 -1 0 0 -1 0
          0.98078525066 0 -0.19509035349 0.19509035349 0 0.98078525066
          -0.98078525066 0 0.19509035349 -0.19509035349 0 -0.98078525066
          -0.99253195524 0.1217469424 0.007614991162 -0.99800872803 -0.051885370165 -0.035867642611
          0.050062596798 -0.99445778131 0.092452146113 -0.035094358027 -0.99747848511 0.061685159802
          0.017957029864 -0.99762243032 0.066535852849 0.059757433832 -0.99646162987 0.059103872627
          0.084036655724 -0.99622637033 0.021698623896 0.10659664124 -0.99187850952 0.069384388626
          0.10735043883 -0.99418586493 0.0083882091567 0.071949422359 -0.99653273821 -0.041782777756
          0.12205828726 -0.99204337597 -0.030849104747 0.035094358027 -0.99747848511 -0.061685159802
          0.093098625541 -0.99196022749 -0.085717715323 -0.050062596798 -0.99445778131 -0.092452146113
          -0.017957029864 -0.99762243032 -0.066535852849 -0.059757433832 -0.99646162987 -0.059103872627
          -0.084036655724 -0.99622637033 -0.021698623896 -0.10659664124 -0.99187850952 -0.069384388626
          -0.10735043883 -0.99418586493 -0.0083882091567 -0.071949422359 -0.99653273821 0.041782777756
          -0.12205828726 -0.99204337597 0.030849104747 -0.093098625541 -0.99196022749 0.085717715323
          -0.97566306591 -0.140030846 0.16873939335 -0.99592250586 -0.085346885026 0.029227862135
          -0.98877459764 -0.14941363037 -0.00060332549037 -0.96692407131 -0.084287978709 -0.24073494971
          -0.91393840313 -0.29596701264 0.27770507336 -0.97340965271 -0.1555339098 -0.16817490757
          -0.95174634457 -0.30672267079 0.010003559291 -0.94211781025 -0.08448651433 0.32446280122
          0 1 0 0 1 0
          -0.86316907406 -0.13533911109 0.48643860221 -0.78511399031 -0.084444664419 0.61356753111
          0 1 0 -0.91897183657 -0.1612829268 0.35983130336
          0 1 0 -0.65038305521 -0.1318064332 0.74808347225
          -0.54251456261 -0.084376215935 0.83579820395 0 1 0
          -0.74526280165 -0.1589858681 0.64753907919 -0.36195716262 -0.12945654988 0.92316198349
          -0.24075694382 -0.084281533957 0.96691918373 0 1 0
          -0.48493736982 -0.15706066787 0.86032998562 0 1 0
          0 1 0 -0.0006075858837 -0.14940956235 0.98877519369
          0 1 0 -0.16817499697 -0.1555300951 0.97341024876
          0.16874454916 -0.14002665877 0.97566276789 0.48645022511 -0.13533715904 0.86316281557
          0.61359578371 -0.084443226457 0.7850920558 0.35983139277 -0.16128152609 0.91897207499
          0.74809366465 -0.13180750608 0.65037113428 0.83581745625 -0.084379218519 0.54248446226
          0 1 0 0.64753895998 -0.15898656845 0.74526274204
          0.92316633463 -0.12946029007 0.36194473505 0.96692407131 -0.084287978709 0.24073494971
          0 1 0 0.86032956839 -0.1570635587 0.4849371314
          0.98877459764 -0.14941361547 0.0006033279351 0.99592250586 -0.085346885026 -0.029227862135
          0 1 0 0.97340971231 -0.15553388 0.16817489266
          0.97566306591 -0.140030846 -0.16873940825 0 1 0
          0 1 0 0.95174634457 -0.3067227006 -0.010003559291
          0.91393840313 -0.29596704245 -0.27770507336 0.91180616617 -0.29582419991 0.28477630019
          0.77344214916 -0.29588928819 0.56056827307 0.55443739891 -0.29594355822 0.77782809734
          0.27770510316 -0.29596704245 0.91393840313 0.010003560223 -0.3067227006 0.95174634457
          -0.28477630019 -0.29582419991 0.91180616617 -0.56056827307 -0.29588928819 0.77344214916
          -0.77782809734 -0.29594355822 0.55443739891 0.98921906948 0.14644253254 -0.00050014880253
          0.9297324419 0.14644108713 0.33786475658 0.92939150333 0.14643970132 -0.33880209923
          0.75746566057 0.14644111693 -0.63623958826 0.49417641759 0.14644254744 -0.85693889856
          0.17128458619 0.14643970132 -0.97427767515 -0.17226682603 0.14644110203 -0.97410428524
          -0.49504268169 0.14644253254 -0.85643875599 -0.75810694695 0.14643973112 -0.63547563553
          -0.9297324419 0.14644110203 -0.33786478639 0 1 0
          -0.98921906948 0.14644253254 0.00050014624139 0 1 0
          -0.92939150333 0.14643970132 0.33880209923 0 1 0
          0 1 0 -0.75746566057 0.14644111693 0.63623958826
          0 1 0 0 1 0
          -0.49417641759 0.14644254744 0.85693889856 0 1 0
          0 1 0 -0.17128458619 0.14643970132 0.97427767515
          0 1 0 0 1 0
          0.17226682603 0.14644110203 0.97410428524 0 1 0
          0 1 0 0 1 0
          0.49504268169 0.14644253254 0.85643875599 0.75810694695 0.14643973112 0.63547563553
          -0.92316627502 -0.12946030498 -0.36194479465 -0.74809366465 -0.13180750608 -0.65037113428
          -0.86032956839 -0.1570635587 -0.4849371314 -0.48645022511 -0.13533715904 -0.86316281557
          -0.64753895998 -0.15898656845 -0.74526274204 0 1 0
          -0.16874453425 -0.14002664387 -0.97566276789 -0.35983139277 -0.16128152609 -0.91897207499
          0.0006075858837 -0.14940956235 -0.98877519369 0.36195716262 -0.12945654988 -0.92316198349
          0.16817499697 -0.1555300951 -0.97341024876 0.65038305521 -0.1318064332 -0.74808353186
          0.48493736982 -0.15706066787 -0.86032998562 0.86316907406 -0.13533909619 -0.48643860221
          0.74526280165 -0.1589858681 -0.64753907919 0.91897183657 -0.1612829268 -0.35983130336
          0.94792437553 0.31828650832 -0.011533969082 0.8856113553 0.33284944296 0.32388854027
          0.88886076212 0.33275985718 -0.314956218 0.71051836014 0.33291444182 -0.61994481087
          0.45400473475 0.31741032004 -0.8325445056 0.15225249529 0.33292421699 -0.93058079481
          -0.18357791007 0.31761842966 -0.93027830124 -0.47589510679 0.33290320635 -0.81406342983
          -0.73610305786 0.31791114807 -0.59756577015 -0.8856113553 0.33284944296 -0.32388851047
          -0.94792437553 0.31828650832 0.011533969082 -0.80469340086 0.56727916002 -0.17510823905
          -0.8044501543 0.59401810169 0.0015717296628 -0.88886076212 0.33275985718 0.3149561584
          -0.48332253098 0.85179787874 -0.20208847523 -0.78193223476 0.59780883789 0.1766538769
          -0.50240772963 0.86384731531 0.036801230162 -0.64496582747 0.59092158079 -0.48459336162
          -0.72913300991 0.58718132973 -0.35154396296 -0.48343348503 0.5963383913 -0.64083737135
          -0.17289032042 0.59525287151 -0.78471839428 -0.34548586607 0.60059791803 -0.72105592489
          0.0010383345652 0.56755197048 -0.82333689928 0.3415569663 0.56644266844 -0.74998766184
          0.20295581222 0.62833213806 -0.75100445747 0.52321439981 0.59621930122 -0.60890823603
          0.7293304801 0.59601950645 -0.33591336012 0.62516838312 0.60198450089 -0.4967687428
          0.8044501543 0.59401810169 -0.001571724657 0.78193223476 0.59780883789 -0.176653862
          0.80469340086 0.56727916002 0.17510825396 0.50240767002 0.86384731531 -0.036801230162
          0.48332253098 0.85179787874 0.20208849013 0.41335836053 0.88090336323 -0.23053011298
          0.2832171917 0.86369407177 -0.41691794991 0.074457466602 0.88084769249 -0.46750766039
          -0.1510874629 0.86356508732 -0.48106959462 -0.28258132935 0.89574241638 -0.34321027994
          0.097354181111 0.99477005005 -0.030898971483 -0.12125426531 0.9920014143 -0.035080142319
          -0.12784877419 0.99174404144 0.0099231526256 0.12784877419 0.99174404144 -0.0099231526256
          -0.097354181111 0.99477005005 0.030898971483 -0.41335836053 0.88090336323 0.23053012788
          0.10072669387 0.99203544855 -0.075629599392 -0.10072681308 0.99203544855 -0.075629428029
          0.068239346147 0.99186038971 -0.10750064999 -0.058912195265 0.9949414134 -0.081369280815
          0.031657658517 0.99487811327 -0.095996588469 -0.053835589439 0.98838663101 -0.14210417867
          -1.3871809301e-007 0.98208212852 -0.18845331669 0.12125426531 0.9920014143 0.035080142319
          -0.10072669387 0.99203544855 0.075629599392 0.10072681308 0.99203544855 0.075629428029
          -0.068239346147 0.99186038971 0.10750064999 0.058912195265 0.9949414134 0.081369280815
          0.28258132935 0.89574241638 0.34321030974 -0.031657658517 0.99487811327 0.095996588469
          0.053835589439 0.98838663101 0.14210417867 1.3871809301e-007 0.98208212852 0.18845331669
          0.1510874629 0.86356508732 0.48106959462 -0.074457459152 0.88084769249 0.46750763059
          -0.28321716189 0.86369407177 0.41691789031 -0.41779476404 -0.90801799297 -0.030835650861
          -0.34538394213 -0.91931885481 -0.18858104944 -0.37727954984 -0.91171604395 0.1625854671
          -0.22979401052 -0.92900282145 0.29008349776 -0.041270893067 -0.99176985025 0.12119911611
          -2.1513656634e-008 -0.98758679628 0.15707419813 -0.12425998598 -0.90789794922 0.4003508091
          0.05948907882 -0.91918802261 0.38929992914 0.2257976532 -0.91928052902 0.3223952949
          0.34538394213 -0.91931885481 0.18858104944 0.41779476404 -0.90801799297 0.030835650861
          0.37727954984 -0.91171604395 -0.1625854671 0.22979401052 -0.92900282145 -0.29008349776
          0.041270893067 -0.99176985025 -0.12119911611 2.1513656634e-008 -0.98758679628 -0.15707419813
          0.12425998598 -0.90789794922 -0.4003508091 -0.05948907882 -0.91918802261 -0.38929992914
          -0.2257976532 -0.91928052902 -0.3223952949 -0.70074516535 -0.69754898548 0.14960463345
          -0.86670267582 -0.49874866009 -0.0087325293571 -0.69762378931 -0.71646404266 -0.0005352430162
          -0.81779843569 -0.51066333055 -0.26538413763 -0.67620742321 -0.72085982561 -0.15200202167
          -0.83136832714 -0.49736902118 0.24789261818 -0.91180616617 -0.29582419991 -0.28477632999
          -0.65185195208 -0.6883983016 0.31811445951 -0.70153063536 -0.51072305441 0.49700772762
          -0.42975196242 -0.71777874231 0.54782015085 -0.52179664373 -0.49786069989 0.69272142649
          -0.52721840143 -0.73823231459 0.42077761889 -0.31291887164 -0.69810223579 0.64399921894
          -0.26538541913 -0.51066344976 0.81779789925 -0.024899108335 -0.69463682175 0.71892952919
          -0.0087319845334 -0.4987488091 0.86670261621 -0.12402067333 -0.74054908752 0.66045886278
          0.16622430086 -0.71858930588 0.6752768755 0.24789358675 -0.49736902118 0.83136802912
          0.31523808837 -0.69809514284 0.64287489653 0.49700886011 -0.51072311401 0.7015298605
          0.54996442795 -0.69640976191 0.46103420854 0.69272184372 -0.49786087871 0.52179592848
          0.43770745397 -0.74218022823 0.50752407312 0.63388133049 -0.7189360261 0.28517624736
          0.81779843569 -0.51066333055 0.26538413763 0.69762384892 -0.71646398306 0.00053524051327
          0.86670267582 -0.49874866009 0.0087325265631 0.67620736361 -0.72085988522 0.15200202167
          0.70074516535 -0.69754898548 -0.14960463345 0.83136832714 -0.49736899137 -0.24789261818
          -0.77344214916 -0.29588928819 -0.56056827307 -0.55443739891 -0.29594355822 -0.77782809734
          -0.27770510316 -0.29596704245 -0.91393840313 -0.010003560223 -0.3067227006 -0.95174634457
          0.28477630019 -0.29582419991 -0.91180616617 0.56056827307 -0.29588928819 -0.77344214916
          0.77782809734 -0.29594355822 -0.55443739891 -0.71051836014 0.33291444182 0.61994481087
          -0.45400473475 0.31741032004 0.8325445056 -0.15225249529 0.33292421699 0.93058079481
          0.18357791007 0.31761842966 0.93027830124 0.47589510679 0.33290320635 0.81406342983
          0.73610305786 0.31791114807 0.59756577015 0.64496582747 0.59092158079 0.48459336162
          0.72913300991 0.58718132973 0.35154396296 0.48343348503 0.5963383913 0.64083737135
          0.17289032042 0.59525287151 0.78471839428 0.34548586607 0.60059791803 0.72105592489
          -0.0010383345652 0.56755197048 0.82333689928 -0.3415569663 0.56644266844 0.74998766184
          -0.20295581222 0.62833213806 0.75100445747 -0.52321439981 0.59621930122 0.60890823603
          -0.7293304801 0.59601950645 0.33591336012 -0.62516838312 0.60198450089 0.4967687428
          0.65185195208 -0.6883983016 -0.31811445951 0.70153063536 -0.51072305441 -0.49700772762
          0.42975196242 -0.71777874231 -0.54782015085 0.52179664373 -0.49786069989 -0.69272142649
          0.52721840143 -0.73823231459 -0.42077761889 0.31291887164 -0.69810223579 -0.64399921894
          0.26538541913 -0.51066344976 -0.81779789925 0.024899108335 -0.69463682175 -0.71892952919
          0.0087319845334 -0.4987488091 -0.86670261621 0.12402067333 -0.74054908752 -0.66045886278
          -0.16622430086 -0.71858930588 -0.6752768755 -0.24789358675 -0.49736902118 -0.83136802912
          -0.31523808837 -0.69809514284 -0.64287489653 -0.49700886011 -0.51072311401 -0.7015298605
          -0.54996442795 -0.69640976191 -0.46103420854 -0.69272184372 -0.49786087871 -0.52179592848
          -0.43770745397 -0.74218022823 -0.50752407312 -0.63388133049 -0.7189360261 -0.28517624736
          0.34075516462 0.69903761148 0.62867504358 0.42099997401 9.4480899861e-005 0.90706062317
          0.25884011388 0 0.96592015028 -0.25887003541 6.871309597e-005 0.96591216326
          -0.25889995694 0 0.96590411663 0 -1 0
          -0.34075516462 0.69903761148 0.62867504358 -0.57503765821 9.4480899861e-005 0.81812697649
          0 -1 0 0 0.70040810108 0.71374261379
          0.64076334238 0.68954765797 0.3375594914 0.70706945658 6.872422091e-005 0.70714408159
          0.96593147516 0 0.258798033 0 -1 0
          0.72869986296 0.68279397488 -0.0528097637 0.99603754282 9.4530405477e-005 0.08893366158
          0.70704758167 0 0.7071660161 0 -1 0
          0.60399734974 0.6941075325 -0.39166551828 0.96593946218 6.8754670792e-005 -0.25876808167
          0.70709139109 0 -0.70712220669 0 -1 0
          0.57503765821 9.4480899861e-005 -0.81812697649 0.96594750881 0 -0.25873816013
          0 -1 0 0.34075516462 0.69903761148 -0.62867504358
          0.25887003541 6.871309597e-005 -0.96591216326 -0.25884011388 0 -0.96592015028
          0 -1 0 -0.34075516462 0.69903761148 -0.62867504358
          -0.42099997401 9.4480899861e-005 -0.90706062317 0.25889995694 0 -0.96590411663
          0 -1 0 0 0.70040810108 -0.71374261379
          -0.64076334238 0.68954765797 -0.3375594914 -0.70706945658 6.872422091e-005 -0.70714408159
          -0.96593147516 0 -0.258798033 0 -1 0
          -0.72869986296 0.68279397488 0.0528097637 -0.99603754282 9.4530405477e-005 -0.08893366158
          -0.70704758167 0 -0.7071660161 0 -1 0
          -0.60399734974 0.6941075325 0.39166551828 -0.96593946218 6.8754670792e-005 0.25876808167
          -0.70709139109 0 0.70712220669 0 -1 0
          -0.96594750881 0 0.25873816013 0 -1 0
          0 -1 0 0 -1 0
          0 -1 0 0 -1 0
          0 -1 0 0 -1 0
          0 -1 0 0 -1 0
          -0.25884020329 0 0.96592015028 0.25884020329 0 0.96592015028
          0.57505476475 0 0.81811493635 -0.70709133148 0 0.70712226629
          -0.96593147516 0 0.25879797339 -0.42098098993 0 0.90706944466
          -0.99603569508 0 0.088954553008 -0.96593147516 0 -0.25879797339
          -0.70709133148 0 -0.70712226629 -0.57505476475 0 -0.81811493635
          -0.25884020329 0 -0.96592015028 0.25884020329 0 -0.96592015028
          -0.47166904807 -0.49735802412 0.72812312841 0.25884020329 0 0.96592015028
          0 -1 0 0 -1 0
          0 -1 0 -0.70709133148 0 0.70712226629
          0 -1 0 0 -1 0
          -0.96593147516 0 -0.25879797339 0 -1 0
          0 -1 0 0.42098098993 0 -0.90706944466
          -0.25884020329 0 -0.96592015028 0 -1 0
          0.70709133148 0 -0.70712226629 0.96593147516 0 -0.25879797339
          0 -1 0 -0.75858271122 -0.5048828721 0.41188058257
          0.99603569508 0 -0.088954553008 0.70709133148 0 -0.70712226629
          0 -1 0 -0.75858271122 -0.5048828721 -0.41188058257
          0.96593147516 0 0.25879797339 0.70709133148 0 0.70712226629
          0 -1 0 -0.86182832718 -0.50720012188 0
          0.96593147516 0 0.25879797339 0 -1 0
          -0.15374721587 0 0.98811018467 0.30743053555 0 0.95157051086
          -0.50865107775 0 0.86097276211 -0.98811739683 0 -0.15370094776
          -0.64817285538 -0.025179775432 0.76107680798 -0.82496464252 1.1994061424e-006 0.56518435478
          -0.95155912638 0 0.3074657917 -0.86098229885 0 -0.50863492489
          -0.3074657917 0 -0.95155912638 -0.76107680798 -0.025179775432 -0.64817285538
          -0.56518435478 1.1994061424e-006 -0.82496464252 0.15370094776 0 -0.98811739683
          0.86098229885 0 0.50863492489 0.56517672539 1.199407734e-006 0.82496988773
          0.76107680798 -0.025179775432 0.64817285538 0.98811739683 0 0.15370094776
          0.50863492489 0 -0.86098229885 0.64817285538 -0.025179775432 -0.76107680798
          0.82496464252 1.1994061424e-006 -0.56518435478 0.95155912638 0 -0.3074657917
          0 -1 0 0 -1 0
          0 -1 0 0 -1 0
          0 -1 0 0 -1 0
          0 -1 0 0 -1 0
          0 -1 0 0 -1 0
          0 -1 0 0 -1 0
          0 -1 0 0 -1 0
          0 -1 0 0 -1 0
          0 -1 0 0 -1 0
          0 -1 0 0 -1 0
          0 -1 0 0 -1 0
          0 -1 0 0 -1 0
          0.96160656214 -0.042394004762 -0.27113762498 0.96243774891 -0.012465637177 0.2712161243
          0.99117088318 -0.016258103773 -0.13159006834 0.99763929844 0 0.068671487272
          0.27113762498 -0.042394004762 0.96160656214 0.13159006834 -0.016258103773 0.99117088318
          -0.2712161243 -0.012465637177 0.96243774891 -0.068671487272 0 0.99763929844
          -0.96160656214 -0.042394004762 0.27113762498 -0.96243774891 -0.012465637177 -0.2712161243
          -0.99117088318 -0.016258103773 0.13159006834 -0.99763929844 0 -0.068671487272
          -0.27113762498 -0.042394004762 -0.96160656214 -0.13159006834 -0.016258103773 -0.99117088318
          0.2712161243 -0.012465637177 -0.96243774891 0.068671487272 0 -0.99763929844
          0 -1 0 0 -1 0
          0 -1 0 0 -1 0
          0 1 0 0 1 0
          0 1 0 0.99449145794 0.087006464601 0.058451954275
          0.91452425718 0.087000742555 0.39506486058 0 1 0
          0.79939836264 0.087000727654 -0.59446877241 0.95450770855 0.087003536522 -0.28521123528
          0 1 0 0.54786658287 0.08700645715 -0.83202892542
          0 1 0 0.23025374115 0.087003514171 -0.96923351288
          0.3244843781 -0.084481194615 0.94211083651 0.02922796458 -0.085340157151 0.9959231019
          -0.11512593925 0.087000720203 -0.9895336628 0 1 0
          0 1 0 -0.44662493467 0.087006449699 -0.89048081636
          0 1 0 -0.7242539525 0.087003521621 -0.684022367
          0 1 0 -0.91452425718 0.087000742555 -0.39506486058
          -0.99449145794 0.087006464601 -0.058451954275 0.94211781025 -0.08448651433 -0.32446280122
          -0.95450770855 0.087003536522 0.28521123528 -0.79939836264 0.087000727654 0.59446877241
          0.78511399031 -0.084444664419 -0.61356753111 -0.54786658287 0.08700645715 0.83202892542
          0.54251456261 -0.084376215935 -0.83579820395 -0.23025374115 0.087003514171 0.96923351288
          0.24075694382 -0.084281533957 -0.96691918373 0.11512593925 0.087000720203 0.9895336628
          -0.61359578371 -0.084443226457 -0.7850920558 0.44662493467 0.087006449699 0.89048081636
          -0.3244843781 -0.084481194615 -0.94211083651 -0.83581745625 -0.084379218519 -0.54248446226
          0.7242539525 0.087003521621 0.684022367 -0.02922796458 -0.085340157151 -0.9959231019
        </DataArray>
      </PointData>
      <Points>
        <DataArray type="Float32" Name="Points" NumberOfComponents="3" format="ascii" RangeMin="0.052469928029" RangeMax="0.13645772851">
          0.0080223595724 -0.08030000329 0.01389513351 0.007499912288 -0.08030000329 0.012990228832
          -3.469446952e-018 -0.08030000329 0.014999999665 -3.469446952e-018 -0.076800003648 0.014999999665
          -0.0080223595724 -0.08030000329 0.01389513351 -0.007499912288 -0.08030000329 0.012990228832
          -0.0074996631593 -0.076800003648 0.012989797629 -5.2041704279e-018 -0.08030000329 0.016044531018
          0.013894970529 -0.08030000329 0.0080222655088 0.012990380637 -0.08030000329 0.0074999998324
          0.0074996631593 -0.076800003648 0.012989797629 0.016044719145 -0.08030000329 0
          0.014999824576 -0.08030000329 3.469446952e-018 0.012990380637 -0.076800003648 0.0074999998324
          0.013894970529 -0.08030000329 -0.0080222655088 0.012990380637 -0.08030000329 -0.0074999998324
          0.014999326319 -0.076800003648 -3.469446952e-018 0.007499912288 -0.08030000329 -0.012990228832
          0.012990380637 -0.076800003648 -0.0074999998324 0.0080223595724 -0.08030000329 -0.01389513351
          1.734723476e-018 -0.08030000329 -0.014999999665 0.0074996631593 -0.076800003648 -0.012989797629
          -0.0080223595724 -0.08030000329 -0.01389513351 -0.007499912288 -0.08030000329 -0.012990228832
          1.734723476e-018 -0.076800003648 -0.014999999665 -3.469446952e-018 -0.08030000329 -0.016044531018
          -0.013894970529 -0.08030000329 -0.0080222655088 -0.012990380637 -0.08030000329 -0.0074999998324
          -0.0074996631593 -0.076800003648 -0.012989797629 -0.016044719145 -0.08030000329 -6.9388939039e-018
          -0.014999824576 -0.08030000329 3.469446952e-018 -0.012990380637 -0.076800003648 -0.0074999998324
          -0.013894970529 -0.08030000329 0.0080222655088 -0.012990380637 -0.08030000329 0.0074999998324
          -0.014999326319 -0.076800003648 -6.9388939039e-018 -0.012990380637 -0.076800003648 0.0074999998324
          -0.018252279609 -0.082763180137 -6.9388939039e-018 -0.016444737092 -0.082763180137 0.0079193674028
          -0.011380110867 -0.082763180137 -0.014270207845 -0.016444737092 -0.082763180137 -0.0079193674028
          -0.0040615145117 -0.082763180137 -0.017794657499 0.0040615145117 -0.082763180137 -0.017794657499
          0.011380110867 -0.082763180137 -0.014270207845 0.016444737092 -0.082763180137 -0.0079193674028
          0.018252279609 -0.082763180137 3.469446952e-018 0.011380110867 -0.082763180137 0.014270207845
          0.016444737092 -0.082763180137 0.0079193674028 0.0040615145117 -0.082763180137 0.017794657499
          -0.0040615145117 -0.082763180137 0.017794657499 -0.011380110867 -0.082763180137 0.014270207845
          0.018400887027 -0.10112799704 -0.0049305027351 0.018267752603 -0.085973195732 -0.0054029328749
          0.019050000235 -0.085973195732 3.469446952e-018 0.019050000235 -0.10112799704 -6.9388939039e-018
          0.018267752603 -0.085973195732 0.0054029328749 0.016497783363 -0.10112799704 -0.0095250001177
          0.015985256061 -0.085973195732 -0.010362146422 0.013470384292 -0.10112799704 -0.013470384292
          0.012389959767 -0.085973195732 -0.014470363036 0.0095250001177 -0.10112799704 -0.016497783363
          0.0077771297656 -0.085973195732 -0.017390191555 0.0049305027351 -0.10112799704 -0.018400887027
          0.0025255985092 -0.085973195732 -0.018881838769 0 -0.089824996889 -0.019050000235
          -0.0029333492275 -0.085973195732 -0.018822804093 0 -0.10112799704 -0.019050000235