<VTKFile type="PolyData" version="0.1" byte_order="LittleEndian">
  <PolyData>
    <Piece NumberOfPoints="102" NumberOfVerts="0" NumberOfLines="0" NumberOfStrips="0" NumberOfPolys="200">
      <PointData Normals="Normals">
        <DataArray type="Float32" Name="Normals" NumberOfComponents="3" format="ascii" RangeMin="0.99999997117" RangeMax="1.0000000355">
          0.026103956625 0.98255419731 -0.18413545191 0.099216662347 0.96424281597 0.24574749172
          0.40446442366 0.86209666729 0.30528330803 0.66625732183 0.72773653269 0.16279052198
          0.45490056276 0.84186083078 -0.29040631652 0.1013667807 0.9873957634 -0.12154983729
          -0.01336648874 0.99672669172 0.07973241061 -0.2256000042 0.83305323124 -0.5051009059
          -0.65460926294 0.69183588028 -0.30471265316 -0.5710439682 0.75881665945 0.31321886182
          -0.23819051683 0.90738832951 0.34628272057 0.13219989836 0.53205645084 0.83632481098
          0.65591913462 0.48756462336 0.5762385726 0.92867940664 0.26400485635 0.26049175858
          0.91676044464 0.30694633722 -0.25560572743 0.49650380015 0.77476429939 -0.39143875241
          -0.093233406544 0.98725020885 -0.12901392579 -0.47499531507 0.70698297024 -0.52397954464
          -0.88332784176 0.01380719617 -0.4685523212 -0.91885316372 -0.11319709569 0.37801492214
          -0.48408126831 0.24680075049 0.83949673176 0.075448967516 -0.061213746667 0.99526900053
          0.70042765141 0.17007820308 0.69316267967 0.93515557051 0.312150985 0.16746871173
          0.9575715661 0.24203492701 -0.15644724667 0.74011087418 0.33864569664 -0.58099478483
          0.072201900184 0.53256368637 -0.8433046937 -0.66865861416 0.15382884443 -0.72748357058
          -0.49639520049 -0.81185913086 -0.30737033486 -0.64734262228 -0.7238265276 0.23879435658
          -0.47090640664 -0.35402405262 0.80803102255 -0.13582248986 -0.45542788506 0.87985092402
          0.47776913643 -0.11485762894 0.87094449997 0.92748588324 0.23311761022 0.29227754474
          0.91083568335 0.34574314952 -0.22547721863 0.68051725626 0.30910998583 -0.6643397212
          -0.048332545906 0.09131924808 -0.99464803934 -0.66978049278 -0.25324037671 -0.69804251194
          -0.75514042377 -0.59040719271 -0.28492495418 -0.63647419214 -0.74401193857 0.2033393681
          -0.46395203471 -0.63603764772 0.61660736799 -0.26075273752 -0.36037299037 0.89562231302
          0.21909621358 -0.26175829768 0.93993586302 0.8907597065 -0.059736385942 0.45053160191
          0.93356794119 -0.081726573408 -0.34895792603 0.49157330394 -0.21307338774 -0.84436690807
          0.05484900251 -0.16641555727 -0.98452907801 -0.75805878639 -0.15043985844 -0.63459807634
          -0.96721899509 -0.21252791584 -0.13899406791 -0.89199733734 -0.25272220373 0.37479630113
          -0.48934811354 -0.3003230989 0.8187456727 -0.21842926741 -0.057737004012 0.97414326668
          0.10393603146 -0.094557248056 0.99007892609 0.8519037962 -0.13117535412 0.50700396299
          0.86730372906 -0.12813794613 -0.48100408912 0.18929614127 -0.30903914571 -0.93202024698
          0.15918445587 -0.53382241726 -0.83047813177 -0.20595829189 -0.28267589211 -0.93684339523
          -0.98035901785 -0.051979649812 -0.19024808705 -0.89097803831 -0.028271926567 0.45316538215
          -0.31753969193 -0.0378966555 0.94748741388 0.099780589342 -0.050177127123 0.99374347925
          -0.12764196098 -0.71679788828 0.68549859524 -0.159006387 -0.83625787497 0.52477586269
          0.0094595560804 -0.71224015951 0.70187216997 0.87042307854 -0.13082282245 0.47460412979
          0.83037430048 -0.14985856414 -0.53667581081 0.11619532853 -0.14334969223 -0.98282730579
          0.022468574345 -0.20150695741 -0.97922933102 -0.37366837263 -0.083954520524 -0.92375516891
          -0.90360766649 -0.055117774755 -0.42480015755 -0.93707114458 -0.026890920475 0.34810131788
          -0.31844416261 -0.012365867384 0.94786095619 0.040646418929 -0.89459782839 0.44501972198
          0.40051102638 -0.39509600401 0.82673460245 -0.071277208626 -0.45950201154 0.88531208038
          0.89550960064 -0.082253850996 0.43737497926 0.39405608177 -0.84221047163 0.36796918511
          0.86455911398 -0.084095992148 -0.49544468522 0.17747859657 -0.050700437278 -0.98281776905
          -0.080159395933 -0.045283965766 -0.99575287104 -0.46944135427 -0.019094949588 -0.88275712729
          -0.30395251513 -0.93819195032 -0.16555598378 -0.41381508112 -0.6381239295 -0.64927262068
          -0.94602489471 -0.051266424358 -0.32001358271 -0.79826331139 -0.50876396894 -0.32238933444
          -0.4476006031 -0.84039473534 0.30559834838 -0.63403177261 -0.4778226018 0.60802078247
          -0.95421212912 -0.051306985319 0.29469782114 -0.3140462935 -0.72021013498 0.61860507727
          0.38540369272 -0.91130685806 0.14485797286 0.80477404594 -0.59358125925 0
          0.7572723031 -0.53339660168 -0.37686434388 0.30340793729 -0.84024620056 -0.44936615229
          0.31644055247 -0.58072805405 -0.75008016825 0.019581187516 -0.92974615097 -0.36768019199
          0.0042231981643 -0.85903888941 -0.51189285517 -0.36033990979 -0.31787204742 -0.87699061632
          -0.35582706332 -0.82876479626 -0.43189811707 -0.85388958454 -0.46096393466 -0.24162955582
          -0.28541138768 -0.95434480906 0.088126830757 -0.8127528429 -0.58260864019 0
        </DataArray>
      </PointData>
      <CellData>
      </CellData>
      <Points>
        <DataArray type="Float32" Name="Points" NumberOfComponents="3" format="ascii" RangeMin="0.030312746171" RangeMax="0.22321900757">
          0.0060000000522 -0.03125499934 -0.0031810000073 0.0060000000522 -0.028519999236 0.008334999904
          0.016459999606 -0.03125499934 0.0096829999238 0.027592999861 -0.033989999443 0.0030879999977
          0.027592999861 -0.033989999443 -0.009448999539 0.016008999199 -0.034674998373 -0.015491000377
          0.0060000000522 -0.035358998924 -0.013323999941 -0.0075249997899 -0.03450300172 -0.019814999774
          -0.026972999796 -0.033649001271 -0.012753999792 -0.026972999796 -0.033649001271 0.0063930000179
          -0.0079770004377 -0.031083000824 0.014008999802 0.0060000000522 -0.038777001202 0.028074000031
          0.023854000494 -0.040316998959 0.018776999786 0.030511999503 -0.041854999959 0.0039369999431
          0.030511999503 -0.041854999959 -0.010297999717 0.019164999947 -0.03655499965 -0.019371999428
          0.0060000000522 -0.03125499934 -0.020177999511 -0.011132000014 -0.042881000787 -0.024251999334
          -0.031351000071 -0.054506998509 -0.014024999924 -0.031351000071 -0.054506998509 0.0076640001498
          -0.015821000561 -0.046642001718 0.023656999692 0.0060000000522 -0.048693999648 0.029719000682
          0.024484999478 -0.052627000958 0.019554000348 0.030804000795 -0.056559000164 0.0040210001171
          0.030804000795 -0.056559000164 -0.010382000357 0.024576000869 -0.045958999544 -0.026025999337
          0.0060000000522 -0.035358998924 -0.036354001611 -0.015371000394 -0.047497000545 -0.029463000596
          -0.027850000188 -0.059636000544 -0.013008000329 -0.027850000188 -0.059636000544 0.0066470000893
          -0.015279999934 -0.054164998233 0.022991999984 0.0060000000522 -0.06818599999 0.023686999455
          0.024937000126 -0.068356998265 0.020107999444 0.038683000952 -0.068529002368 0.0063080000691
          0.038683000952 -0.068529002368 -0.012668999843 0.027371000499 -0.062201999128 -0.029463000596
          0.0060000000522 -0.055874999613 -0.037450000644 -0.013477000408 -0.059294000268 -0.027133999392
          -0.020554000512 -0.062715001404 -0.010889999568 -0.020554000512 -0.062715001404 0.0045280000195
          -0.011041999795 -0.065449997783 0.017780000344 0.0060000000522 -0.079129002988 0.013818000443
          0.022681999952 -0.080666996539 0.017335999757 0.039000000805 -0.08220499754 0.0072409999557
          0.039000000805 -0.08220499754 -0.01360299997 0.028633000329 -0.070579998195 -0.031016999856
          0.0060000000522 -0.05895299837 -0.038272999227 -0.011312000453 -0.069554001093 -0.024473000318
          -0.012675999664 -0.080155000091 -0.0086019998416 -0.012675999664 -0.080155000091 0.0022420000751
          -0.0053619998507 -0.079641997814 0.01079300046 0.0060000000522 -0.1334989965 0.007784999907
          0.019616000354 -0.11725600064 0.013565000147 0.038389001042 -0.10101400316 0.0062239998952
          0.038389001042 -0.10101400316 -0.012585000135 0.024304000661 -0.084086999297 -0.025691999123
          0.0060000000522 -0.067158997059 -0.028403000906 -0.0072559998371 -0.10101400316 -0.0194819998
          -0.010049000382 -0.1348669976 -0.0078410003334 -0.010049000382 -0.1348669976 0.0014799999772
          -0.002565999981 -0.1341830045 0.0073549998924 0.017092000693 -0.18616099656 0.010459999554
          0.0060000000522 -0.22189448774 0.0061147464439 0.0089862300083 -0.22189448774 0.0071028135717
          0.0048821214586 -0.22189448774 0.0060603171587 0.032262001187 -0.13726100326 0.004445000086
          0.032262001187 -0.13726100326 -0.01080599986 0.019796999171 -0.11041799933 -0.020147999749
          0.0060000000522 -0.083575002849 -0.020452000201 -0.0046410001814 -0.12666000426 -0.016266999766
          -0.010049000382 -0.16974599659 -0.0078410003334 -0.010049000382 -0.16974599659 0.0014799999772
          -0.0019349999493 -0.20240299404 0.0065779997967 0.0028011910617 -0.22189448774 0.0061530261301
          0.015913754702 -0.22189448774 0.0090116197243 -0.00041976038483 -0.22189448774 0.0065991957672
          0.024091999978 -0.20462499559 0.0020719999447 0.020890614018 -0.22189448774 0.0040146233514
          0.024091999978 -0.20462499559 -0.0084330001846 0.015557999723 -0.16940400004 -0.014934999868
          0.0060000000522 -0.1341830045 -0.015243000351 -0.0013940000208 -0.20223100483 -0.012273999862
          -0.002461373806 -0.22189448774 -0.010577009059 -0.0049373996444 -0.22189448774 -0.0097249876708
          -0.0075690001249 -0.22001500428 -0.0071209999733 -0.0074762371369 -0.22189448774 -0.0070940796286
          -0.0073765926063 -0.22189448774 0.0008790550055 -0.0058924062178 -0.22189448774 0.0030524656177
          -0.0075690001249 -0.22001500428 0.00076000002446 -0.0016455199802 -0.22189448774 0.0062222285196
          0.02289506793 -0.22189448774 0.0017243797192 0.02289506793 -0.22189448774 -0.00027366750874
          0.02289506793 -0.22189448774 -0.008085636422 0.020428376272 -0.22189448774 -0.0099515365437
          0.014430060051 -0.22189448774 -0.013548834249 0.0078765815124 -0.22189448774 -0.014301713556
          0.0060000000522 -0.22189448774 -0.014286798425 0.00096381554613 -0.22189448774 -0.014491631649
          -0.0017096253578 -0.22189448774 -0.012662175111 -0.0027286999393 -0.22189448774 -0.011657795869
          -0.0074762371369 -0.22189448774 0.00073307967978 -0.0074762371369 -0.22189448774 0.00049225473776
        </DataArray>
      </Points>
      <Verts>
        <DataArray type="Int64" Name="connectivity" format="ascii" RangeMin="1e+299" RangeMax="-1e+299">
        </DataArray>
        <DataArray type="Int64" Name="offsets" format="ascii" RangeMin="1e+299" RangeMax="-1e+299">
        </DataArray>
      </Verts>
      <Lines>
        <DataArray type="Int64" Name="connectivity" format="ascii" RangeMin="1e+299" RangeMax="-1e+299">
        </DataArray>
        <DataArray type="Int64" Name="offsets" format="ascii" RangeMin="1e+299" RangeMax="-1e+299">
        </DataArray>
      </Lines>
      <Strips>
        <DataArray type="Int64" Name="connectivity" format="ascii" RangeMin="1e+299" RangeMax="-1e+299">
        </DataArray>
        <DataArray type="Int64" Name="offsets" format="ascii" RangeMin="1e+299" RangeMax="-1e+299">
        </DataArray>
      </Strips>
      <Polys>
        <DataArray type="Int64" Name="connectivity" format="ascii" RangeMin="0" RangeMax="101">
          0 1 2 0 2 3
          0 3 4 0 4 5
          0 5 6 0 6 7
          0 7 8 0 8 9
          0 9 10 0 10 1
          1 11 12 1 12 2
          10 11 1 2 12 13
          2 13 3 3 13 14
          3 14 4 4 14 15
          4 15 5 5 15 16
          5 16 6 16 7 6
          7 17 18 7 18 8
          16 17 7 8 18 19
          8 19 9 9 19 20
          9 20 10 10 20 11
          11 21 22 11 22 12
          20 21 11 12 22 23
          12 23 13 13 23 24
          13 24 14 14 24 25
          14 25 15 15 25 26
          15 26 16 16 26 27
          16 27 17 17 27 18
          27 28 18 18 28 29
          18 29 19 19 29 30
          19 30 20 20 30 21
          21 31 32 21 32 22
          30 31 21 22 32 33
          22 33 23 23 33 34
          23 34 24 24 34 35
          24 35 25 25 35 36
          25 36 26 26 36 37
          26 37 27 27 37 38
          27 38 28 28 38 39
          28 39 29 29 39 40
          29 40 30 30 40 31
          31 41 42 31 42 32
          40 41 31 42 43 32
          32 43 33 43 44 33
          33 44 34 44 45 34
          34 45 35 35 45 46
          35 46 36 36 46 47
          36 47 37 37 47 48
          37 48 38 38 48 49
          38 49 39 39 49 50
          39 50 40 40 50 41
          41 51 52 41 52 42
          50 51 41 52 53 42
          42 53 43 53 54 43
          43 54 44 54 55 44
          44 55 45 45 55 56
          45 56 46 46 56 57
          46 57 47 47 57 58
          47 58 48 48 58 59
          48 59 49 49 59 60
          49 60 50 50 60 51
          61 51 62 61 62 63
          51 61 52 51 60 62
          60 64 62 52 61 65
          52 65 53 53 65 66
          53 66 54 54 66 67
          54 67 55 55 67 68
          55 68 56 57 56 68
          57 69 70 57 70 58
          57 68 69 58 70 71
          58 71 59 59 71 72
          59 72 60 73 64 72
          60 72 64 63 74 61
          73 72 75 76 61 74
          76 74 77 61 76 65
          65 76 78 65 78 66
          66 78 79 66 79 67
          67 79 80 67 80 68
          68 80 81 68 81 69
          82 83 81 83 69 81
          84 70 69 85 84 83
          69 83 84 71 70 84
          86 87 88 87 71 88
          89 72 87 72 71 87
          71 84 88 75 72 89
          77 90 76 91 76 90
          78 76 91 78 91 92
          93 78 92 93 94 78
          79 78 94 95 79 94
          80 79 96 79 95 96
          97 80 96 98 81 97
          81 80 97 99 81 98
          82 81 99 100 88 101
          88 84 101 85 101 84
          86 88 100 74 63 77
          99 98 82 100 101 83
          101 85 83 92 91 93
          91 90 93 93 90 94
          94 90 95 97 96 98
          98 96 82 83 82 100
          82 96 100 90 77 95
          77 63 95 63 62 95
          75 89 73 89 87 73
          87 86 73 95 62 96
          96 62 100 73 86 64
          62 64 100 64 86 100
        </DataArray>
        <DataArray type="Int64" Name="offsets" format="ascii" RangeMin="3" RangeMax="600">
          3 6 9 12 15 18
          21 24 27 30 33 36
          39 42 45 48 51 54
          57 60 63 66 69 72
          75 78 81 84 87 90
          93 96 99 102 105 108
          111 114 117 120 123 126
          129 132 135 138 141 144
          147 150 153 156 159 162
          165 168 171 174 177 180
          183 186 189 192 195 198
          201 204 207 210 213 216
          219 222 225 228 231 234
          237 240 243 246 249 252
          255 258 261 264 267 270
          273 276 279 282 285 288
          291 294 297 300 303 306
          309 312 315 318 321 324
          327 330 333 336 339 342
          345 348 351 354 357 360
          363 366 369 372 375 378
          381 384 387 390 393 396
          399 402 405 408 411 414
          417 420 423 426 429 432
          435 438 441 444 447 450
          453 456 459 462 465 468
          471 474 477 480 483 486
          489 492 495 498 501 504
          507 510 513 516 519 522
          525 528 531 534 537 540
          543 546 549 552 555 558
          561 564 567 570 573 576
          579 582 585 588 591 594
          597 600
        </DataArray>
      </Polys>
    </Piece>
  </PolyData>
</VTKFile>
