<VTKFile type="PolyData" version="0.1" byte_order="LittleEndian">
  <PolyData>
    <Piece NumberOfPoints="102" NumberOfVerts="0" NumberOfLines="0" NumberOfStrips="0" NumberOfPolys="200">
      <PointData Normals="Normals">
        <DataArray type="Float32" Name="Normals" NumberOfComponents="3" format="ascii" RangeMin="0.99999997117" RangeMax="1.0000000355">
          0.40446442366 0.86209666729 -0.30528330803 0.099216662347 0.96424281597 -0.24574749172
          0.02610396035 0.98255419731 0.18413542211 0.66625732183 0.72773653269 -0.16279052198
          0.65591913462 0.48756462336 -0.5762385726 0.92867940664 0.26400485635 -0.26049175858
          -0.23819051683 0.90738832951 -0.34628272057 0.13219989836 0.53205645084 -0.83632481098
          0.45490056276 0.84186083078 0.29040631652 0.1013667807 0.9873957634 0.12154983729
          -0.01336648874 0.99672669172 -0.07973241061 -0.2256000042 0.83305323124 0.5051009059
          -0.65460926294 0.69183588028 0.30471265316 -0.5710439682 0.75881665945 -0.31321886182
          0.91676038504 0.30694633722 0.25560572743 0.70042765141 0.17007820308 -0.69316267967
          0.93515557051 0.312150985 -0.16746871173 0.9575715661 0.24203492701 0.15644724667
          -0.48408126831 0.24680075049 -0.83949673176 0.075448960066 -0.061213742942 -0.99526900053
          0.49650380015 0.77476429939 0.39143875241 -0.093233406544 0.98725020885 0.12901392579
          -0.88332784176 0.01380719617 0.4685523212 -0.47499531507 0.70698297024 0.52397954464
          -0.91885316372 -0.11319709569 -0.37801495194 0.74011087418 0.33864569664 0.58099478483
          0.47776913643 -0.11485762894 -0.87094449997 0.92748588324 0.23311761022 -0.29227754474
          0.91083568335 0.34574314952 0.22547721863 0.68051725626 0.30910998583 0.6643397212
          -0.47090637684 -0.35402402282 -0.80803102255 -0.13582248986 -0.45542788506 -0.87985092402
          0.072201900184 0.53256368637 0.8433046937 -0.66865861416 0.15382884443 0.72748357058
          -0.49639520049 -0.81185913086 0.30737033486 -0.64734262228 -0.72382646799 -0.23879437149
          -0.048332545906 0.09131924808 0.99464803934 0.21909621358 -0.26175829768 -0.93993586302
          0.8907597065 -0.059736385942 -0.45053160191 0.93356794119 -0.081726573408 0.34895792603
          0.49157330394 -0.21307338774 0.84436690807 0.05484900251 -0.16641555727 0.98452907801
          -0.46395203471 -0.63603770733 -0.61660730839 -0.26075273752 -0.36037302017 -0.89562231302
          -0.66978049278 -0.25324037671 0.69804251194 -0.75514042377 -0.59040719271 0.28492495418
          -0.63647419214 -0.74401187897 -0.2033393532 -0.75805872679 -0.15043987334 0.63459813595
          0.10393603146 -0.094557248056 -0.99007892609 0.8519037962 -0.13117535412 -0.50700396299
          0.86730372906 -0.12813794613 0.48100408912 0.18929614127 -0.30903914571 0.93202024698
          0.15918445587 -0.53382241726 0.83047813177 -0.20595829189 -0.28267589211 0.93684339523
          -0.48934811354 -0.3003230989 -0.8187456727 -0.21842925251 -0.057737000287 -0.97414326668
          -0.96721899509 -0.21252791584 0.13899406791 -0.89199733734 -0.25272220373 -0.37479630113
          -0.98035901785 -0.051979649812 0.19024808705 0.099780611694 -0.050177127123 -0.99374347925
          0.87042307854 -0.13082282245 -0.47460412979 0.83037430048 -0.14985856414 0.53667581081
          0.11619532853 -0.14334969223 0.98282730579 0.022468574345 -0.20150695741 0.97922933102
          -0.90360766649 -0.055117774755 0.42480015755 -0.37366837263 -0.083954520524 0.92375516891
          -0.31753969193 -0.037896659225 -0.94748741388 -0.12764196098 -0.71679788828 -0.68549859524
          -0.159006387 -0.83625787497 -0.52477586269 0.0094595560804 -0.71224015951 -0.70187216997
          -0.89097803831 -0.028271926567 -0.45316538215 -0.93707114458 -0.026890920475 -0.34810131788
          0.40051102638 -0.39509600401 -0.82673460245 0.89550960064 -0.082253850996 -0.43737497926
          0.39405608177 -0.84221047163 -0.36796918511 0.86455911398 -0.084095992148 0.49544468522
          0.17747859657 -0.050700437278 0.98281776905 -0.080159395933 -0.045283965766 0.99575287104
          -0.46944135427 -0.019094949588 0.88275712729 -0.94602489471 -0.051266424358 0.32001358271
          -0.30395251513 -0.93819195032 0.16555598378 -0.41381508112 -0.6381239295 0.64927262068
          -0.79826331139 -0.50876396894 0.32238933444 -0.3184441328 -0.012365867384 -0.94786095619
          0.040646418929 -0.89459782839 -0.44501972198 -0.071277208626 -0.45950201154 -0.88531208038
          -0.4476006031 -0.84039473534 -0.30559834838 -0.95421212912 -0.051306985319 -0.29469782114
          -0.63403177261 -0.4778226018 -0.60802078247 -0.3140462935 -0.72021013498 -0.61860507727
          0.38540369272 -0.91130685806 -0.14485797286 0.80477404594 -0.59358125925 0
          0.7572723031 -0.53339660168 0.37686434388 0.30340793729 -0.84024620056 0.44936615229
          0.31644055247 -0.58072805405 0.75008016825 0.019581187516 -0.92974615097 0.36768019199
          0.0042231981643 -0.85903888941 0.51189285517 -0.36033990979 -0.31787204742 0.87699061632
          -0.35582706332 -0.82876479626 0.43189811707 -0.85388958454 -0.46096393466 0.24162955582
          -0.8127528429 -0.58260864019 0 -0.28541138768 -0.95434480906 -0.088126830757
        </DataArray>
      </PointData>
      <CellData>
      </CellData>
      <Points>
        <DataArray type="Float32" Name="Points" NumberOfComponents="3" format="ascii" RangeMin="0.030312746171" RangeMax="0.22321900757">
          0.016459999606 -0.03125499934 -0.0096829999238 0.0060000000522 -0.028519999236 -0.008334999904
          0.0060000000522 -0.03125499934 0.0031810000073 0.027592999861 -0.033989999443 -0.0030879999977
          0.023854000494 -0.040316998959 -0.018776999786 0.030511999503 -0.041854999959 -0.0039369999431
          -0.0079770004377 -0.031083000824 -0.014008999802 0.0060000000522 -0.038777001202 -0.028074000031
          0.027592999861 -0.033989999443 0.009448999539 0.016008999199 -0.034674998373 0.015491000377
          0.0060000000522 -0.035358998924 0.013323999941 -0.0075249997899 -0.03450300172 0.019814999774
          -0.026972999796 -0.033649001271 0.012753999792 -0.026972999796 -0.033649001271 -0.0063930000179
          0.030511999503 -0.041854999959 0.010297999717 0.024484999478 -0.052627000958 -0.019554000348
          0.030804000795 -0.056559000164 -0.0040210001171 0.030804000795 -0.056559000164 0.010382000357
          -0.015821000561 -0.046642001718 -0.023656999692 0.0060000000522 -0.048693999648 -0.029719000682
          0.019164999947 -0.03655499965 0.019371999428 0.0060000000522 -0.03125499934 0.020177999511
          -0.031351000071 -0.054506998509 0.014024999924 -0.011132000014 -0.042881000787 0.024251999334
          -0.031351000071 -0.054506998509 -0.0076640001498 0.024576000869 -0.045958999544 0.026025999337
          0.024937000126 -0.068356998265 -0.020107999444 0.038683000952 -0.068529002368 -0.0063080000691
          0.038683000952 -0.068529002368 0.012668999843 0.027371000499 -0.062201999128 0.029463000596
          -0.015279999934 -0.054164998233 -0.022991999984 0.0060000000522 -0.06818599999 -0.023686999455
          0.0060000000522 -0.035358998924 0.036354001611 -0.015371000394 -0.047497000545 0.029463000596
          -0.027850000188 -0.059636000544 0.013008000329 -0.027850000188 -0.059636000544 -0.0066470000893
          0.0060000000522 -0.055874999613 0.037450000644 0.022681999952 -0.080666996539 -0.017335999757
          0.039000000805 -0.08220499754 -0.0072409999557 0.039000000805 -0.08220499754 0.01360299997
          0.028633000329 -0.070579998195 0.031016999856 0.0060000000522 -0.05895299837 0.038272999227
          -0.011041999795 -0.065449997783 -0.017780000344 0.0060000000522 -0.079129002988 -0.013818000443
          -0.013477000408 -0.059294000268 0.027133999392 -0.020554000512 -0.062715001404 0.010889999568
          -0.020554000512 -0.062715001404 -0.0045280000195 -0.011312000453 -0.069554001093 0.024473000318
          0.019616000354 -0.11725600064 -0.013565000147 0.038389001042 -0.10101400316 -0.0062239998952
          0.038389001042 -0.10101400316 0.012585000135 0.024304000661 -0.084086999297 0.025691999123
          0.0060000000522 -0.067158997059 0.028403000906 -0.0072559998371 -0.10101400316 0.0194819998
          -0.0053619998507 -0.079641997814 -0.01079300046 0.0060000000522 -0.1334989965 -0.007784999907
          -0.012675999664 -0.080155000091 0.0086019998416 -0.012675999664 -0.080155000091 -0.0022420000751
          -0.010049000382 -0.1348669976 0.0078410003334 0.017092000693 -0.18616099656 -0.010459999554
          0.032262001187 -0.13726100326 -0.004445000086 0.032262001187 -0.13726100326 0.01080599986
          0.019796999171 -0.11041799933 0.020147999749 0.0060000000522 -0.083575002849 0.020452000201
          -0.010049000382 -0.16974599659 0.0078410003334 -0.0046410001814 -0.12666000426 0.016266999766
          -0.002565999981 -0.1341830045 -0.0073549998924 0.0060000000522 -0.22189448774 -0.0061147464439
          0.0089862300083 -0.22189448774 -0.0071028135717 0.0048821214586 -0.22189448774 -0.0060603171587
          -0.010049000382 -0.1348669976 -0.0014799999772 -0.010049000382 -0.16974599659 -0.0014799999772
          0.015913754702 -0.22189448774 -0.0090116197243 0.024091999978 -0.20462499559 -0.0020719999447
          0.020890614018 -0.22189448774 -0.0040146233514 0.024091999978 -0.20462499559 0.0084330001846
          0.015557999723 -0.16940400004 0.014934999868 0.0060000000522 -0.1341830045 0.015243000351
          -0.0013940000208 -0.20223100483 0.012273999862 -0.0075690001249 -0.22001500428 0.0071209999733
          -0.002461373806 -0.22189448774 0.010577009059 -0.0049373996444 -0.22189448774 0.0097249876708
          -0.0074762371369 -0.22189448774 0.0070940796286 -0.0019349999493 -0.20240299404 -0.0065779997967
          0.0028011910617 -0.22189448774 -0.0061530261301 -0.00041976038483 -0.22189448774 -0.0065991957672
          -0.0073765926063 -0.22189448774 -0.0008790550055 -0.0075690001249 -0.22001500428 -0.00076000002446
          -0.0058924062178 -0.22189448774 -0.0030524656177 -0.0016455199802 -0.22189448774 -0.0062222285196
          0.02289506793 -0.22189448774 -0.0017243797192 0.02289506793 -0.22189448774 0.00027366750874
          0.02289506793 -0.22189448774 0.008085636422 0.020428376272 -0.22189448774 0.0099515365437
          0.014430060051 -0.22189448774 0.013548834249 0.0078765815124 -0.22189448774 0.014301713556
          0.0060000000522 -0.22189448774 0.014286798425 0.00096381554613 -0.22189448774 0.014491631649
          -0.0017096253578 -0.22189448774 0.012662175111 -0.0027286999393 -0.22189448774 0.011657795869
          -0.0074762371369 -0.22189448774 -0.00049225473776 -0.0074762371369 -0.22189448774 -0.00073307967978
        </DataArray>
      </Points>
      <Verts>
        <DataArray type="Int64" Name="connectivity" format="ascii" RangeMin="1e+299" RangeMax="-1e+299">
        </DataArray>
        <DataArray type="Int64" Name="offsets" format="ascii" RangeMin="1e+299" RangeMax="-1e+299">
        </DataArray>
      </Verts>
      <Lines>
        <DataArray type="Int64" Name="connectivity" format="ascii" RangeMin="1e+299" RangeMax="-1e+299">
        </DataArray>
        <DataArray type="Int64" Name="offsets" format="ascii" RangeMin="1e+299" RangeMax="-1e+299">
        </DataArray>
      </Lines>
      <Strips>
        <DataArray type="Int64" Name="connectivity" format="ascii" RangeMin="1e+299" RangeMax="-1e+299">
        </DataArray>
        <DataArray type="Int64" Name="offsets" format="ascii" RangeMin="1e+299" RangeMax="-1e+299">
        </DataArray>
      </Strips>
      <Polys>
        <DataArray type="Int64" Name="connectivity" format="ascii" RangeMin="0" RangeMax="101">
          0 1 2 3 0 2
          0 4 1 5 4 0
          3 5 0 1 6 2
          4 7 1 1 7 6
          8 3 2 9 8 2
          10 9 2 11 10 2
          12 11 2 13 12 2
          6 13 2 14 5 3
          8 14 3 4 15 7
          16 15 4 5 16 4
          17 16 5 14 17 5
          6 18 13 7 18 6
          15 19 7 7 19 18
          20 14 8 9 20 8
          21 20 9 10 21 9
          10 11 21 22 23 11
          12 22 11 11 23 21
          24 22 12 13 24 12
          18 24 13 25 17 14
          20 25 14 15 26 19
          27 26 15 16 27 15
          28 27 16 17 28 16
          29 28 17 25 29 17
          18 30 24 19 30 18
          26 31 19 19 31 30
          32 25 20 21 32 20
          33 32 21 23 33 21
          22 33 23 22 34 33
          35 34 22 24 35 22
          30 35 24 36 29 25
          32 36 25 26 37 31
          26 38 37 27 38 26
          27 39 38 28 39 27
          28 40 39 29 40 28
          41 40 29 36 41 29
          30 42 35 31 42 30
          37 43 31 31 43 42
          44 36 32 33 44 32
          45 44 33 34 45 33
          46 45 34 35 46 34
          42 46 35 47 41 36
          44 47 36 37 48 43
          37 49 48 38 49 37
          38 50 49 39 50 38
          39 51 50 40 51 39
          52 51 40 41 52 40
          53 52 41 47 53 41
          42 54 46 43 54 42
          48 55 43 43 55 54
          56 47 44 45 56 44
          57 56 45 46 57 45
          54 57 46 58 53 47
          56 58 47 48 59 55
          60 59 48 49 60 48
          61 60 49 50 61 49
          62 61 50 51 62 50
          63 62 51 52 63 51
          63 52 53 64 65 53
          58 64 53 65 63 53
          54 66 57 55 66 54
          55 59 67 59 68 67
          66 55 67 66 67 69
          70 58 56 57 70 56
          66 70 57 71 64 58
          70 71 58 68 59 72
          59 73 72 73 74 72
          60 73 59 75 73 60
          61 75 60 76 75 61
          62 76 61 77 76 62
          63 77 62 78 77 63
          65 78 63 65 64 79
          79 64 71 80 78 81
          65 81 78 82 81 79
          81 65 79 66 83 70
          84 83 69 66 69 83
          84 85 83 83 71 70
          86 87 88 71 88 87
          89 88 83 71 83 88
          87 79 71 74 73 90
          91 90 73 73 75 91
          92 91 75 93 92 75
          93 75 94 75 76 94
          95 94 76 76 77 96
          96 95 76 97 96 77
          98 97 78 77 78 97
          99 98 78 80 99 78
          87 100 79 100 82 79
          101 100 87 85 89 83
          86 101 87 72 74 68
          99 80 98 82 100 81
          100 101 81 90 91 93
          91 92 93 93 94 90
          94 95 90 97 98 96
          98 80 96 81 101 80
          80 101 96 90 95 74
          74 95 68 68 95 67
          85 84 89 89 84 88
          88 84 86 95 96 67
          96 101 67 84 69 86
          67 101 69 101 86 69
        </DataArray>
        <DataArray type="Int64" Name="offsets" format="ascii" RangeMin="3" RangeMax="600">
          3 6 9 12 15 18
          21 24 27 30 33 36
          39 42 45 48 51 54
          57 60 63 66 69 72
          75 78 81 84 87 90
          93 96 99 102 105 108
          111 114 117 120 123 126
          129 132 135 138 141 144
          147 150 153 156 159 162
          165 168 171 174 177 180
          183 186 189 192 195 198
          201 204 207 210 213 216
          219 222 225 228 231 234
          237 240 243 246 249 252
          255 258 261 264 267 270
          273 276 279 282 285 288
          291 294 297 300 303 306
          309 312 315 318 321 324
          327 330 333 336 339 342
          345 348 351 354 357 360
          363 366 369 372 375 378
          381 384 387 390 393 396
          399 402 405 408 411 414
          417 420 423 426 429 432
          435 438 441 444 447 450
          453 456 459 462 465 468
          471 474 477 480 483 486
          489 492 495 498 501 504
          507 510 513 516 519 522
          525 528 531 534 537 540
          543 546 549 552 555 558
          561 564 567 570 573 576
          579 582 585 588 591 594
          597 600
        </DataArray>
      </Polys>
    </Piece>
  </PolyData>
</VTKFile>
